/*--------------------------------*- C++ -*----------------------------------*\
| =========                 |                                                 |
| \\      /  F ield         | OpenFOAM: The Open Source CFD Toolbox           |
|  \\    /   O peration     | Version:  2.2.1                                 |
|   \\  /    A nd           | Web:      www.OpenFOAM.org                      |
|    \\/     M anipulation  |                                                 |
\*---------------------------------------------------------------------------*/
FoamFile
{
    version     2.0;
    format      ascii;
    class       surfaceScalarField;
    location    "2";
    object      phi;
}
// * * * * * * * * * * * * * * * * * * * * * * * * * * * * * * * * * * * * * //

dimensions      [0 3 -1 0 0 0 0];

internalField   nonuniform List<scalar> 
79000
(
2.24874e-10
-1.73064e-10
-5.17972e-11
3.90456e-10
-1.20341e-10
-4.52407e-11
4.48109e-10
-3.55698e-11
-2.20829e-11
4.37618e-10
1.55521e-11
-5.06176e-12
3.94228e-10
3.89497e-11
4.44011e-12
3.41925e-10
4.37308e-11
8.57226e-12
2.91976e-10
4.02279e-11
9.7212e-12
2.48129e-10
3.42079e-11
9.63902e-12
2.1075e-10
2.8208e-11
9.17126e-12
1.79029e-10
2.30649e-11
8.65636e-12
1.51925e-10
1.89015e-11
8.20275e-12
1.28488e-10
1.56049e-11
7.83154e-12
1.07935e-10
1.30167e-11
7.53671e-12
8.96341e-11
1.09942e-11
7.3063e-12
7.30822e-11
9.42316e-12
7.12879e-12
5.78709e-11
8.21647e-12
6.99486e-12
4.36645e-11
7.30899e-12
6.89746e-12
3.018e-11
6.65309e-12
6.83141e-12
1.71713e-11
6.21555e-12
6.7931e-12
4.41573e-12
5.97537e-12
6.7802e-12
-8.2971e-12
5.92141e-12
6.79146e-12
-2.11766e-11
6.0526e-12
6.82691e-12
-3.44421e-11
6.37745e-12
6.88806e-12
-4.83353e-11
6.91553e-12
6.97765e-12
-6.31332e-11
7.69826e-12
7.09966e-12
-7.9165e-11
8.77202e-12
7.25975e-12
-9.68328e-11
1.02021e-11
7.46576e-12
-1.16639e-10
1.20778e-11
7.72832e-12
-1.39218e-10
1.45179e-11
8.06087e-12
-1.65371e-10
1.76751e-11
8.47816e-12
-1.96087e-10
2.17263e-11
8.99021e-12
-2.32484e-10
2.68158e-11
9.58093e-12
-2.755e-10
3.28696e-11
1.01461e-11
-3.2496e-10
3.91161e-11
1.03443e-11
-3.77359e-10
4.30935e-11
9.30491e-12
-4.21687e-10
3.91207e-11
5.20743e-12
-4.34206e-10
1.70278e-11
-4.50916e-12
-3.79986e-10
-3.22872e-11
-2.19328e-11
-2.19866e-10
-1.1426e-10
-4.586e-11
-1.66683e-10
-5.31831e-11
8.3874e-11
-2.56938e-10
1.51245e-10
-1.87712e-10
1.80893e-10
-6.52181e-11
1.85844e-10
1.06009e-11
1.81132e-10
4.36616e-11
1.71792e-10
5.30712e-11
1.60116e-10
5.19039e-11
1.47262e-10
4.70618e-11
1.33915e-10
4.15549e-11
1.20506e-10
3.64743e-11
1.07293e-10
3.21139e-11
9.44179e-11
2.84803e-11
8.19409e-11
2.54937e-11
6.98726e-11
2.30625e-11
5.81902e-11
2.11056e-11
4.68499e-11
1.95568e-11
3.57948e-11
1.83641e-11
2.49597e-11
1.74881e-11
1.42747e-11
1.69006e-11
3.66624e-12
1.65838e-11
-6.94084e-12
1.65285e-11
-1.76232e-11
1.6735e-11
-2.84582e-11
1.72124e-11
-3.9523e-11
1.79803e-11
-5.08936e-11
1.90689e-11
-6.26422e-11
2.05206e-11
-7.48327e-11
2.23927e-11
-8.75142e-11
2.47593e-11
-1.0071e-10
2.77136e-11
-1.14399e-10
3.13641e-11
-1.28488e-10
3.58151e-11
-1.42766e-10
4.10943e-11
-1.56838e-10
4.69419e-11
-1.70016e-10
5.22933e-11
-1.8107e-10
5.41481e-11
-1.87511e-10
4.5561e-11
-1.8384e-10
1.33575e-11
-1.54798e-10
-6.13296e-11
-8.6279e-11
-1.82779e-10
-2.52961e-10
2.02045e-11
-2.77142e-10
3.88349e-11
-2.06342e-10
5.24627e-11
-7.8846e-11
6.37814e-11
-7.17751e-13
7.33226e-11
3.41204e-11
7.97626e-11
4.66312e-11
8.28337e-11
4.88327e-11
8.29009e-11
4.69945e-11
8.05735e-11
4.38823e-11
7.64495e-11
4.05983e-11
7.10278e-11
3.75356e-11
6.46952e-11
3.48129e-11
5.77376e-11
3.24513e-11
5.03608e-11
3.04394e-11
4.27091e-11
2.87573e-11
3.48815e-11
2.73844e-11
2.69437e-11
2.6302e-11
1.89372e-11
2.54946e-11
1.08874e-11
2.49505e-11
2.80865e-12
2.46625e-11
-5.2902e-12
2.46274e-11
-1.34018e-11
2.48466e-11
-2.15157e-11
2.53263e-11
-2.96138e-11
2.60784e-11
-3.76641e-11
2.71192e-11
-4.56134e-11
2.84699e-11
-5.33776e-11
3.01569e-11
-6.08288e-11
3.22105e-11
-6.77779e-11
3.46626e-11
-7.39524e-11
3.75386e-11
-7.8972e-11
4.08347e-11
-8.23288e-11
4.44511e-11
-8.33986e-11
4.80116e-11
-8.15221e-11
5.04169e-11
-7.62387e-11
4.88647e-11
-6.76791e-11
3.70014e-11
-5.67379e-11
2.4163e-12
-4.28201e-11
-7.52474e-11
-2.2585e-11
-2.03014e-10
-2.75546e-10
5.3584e-12
-2.82501e-10
1.20774e-11
-2.13061e-10
1.90339e-11
-8.58024e-11
2.70031e-11
-8.68695e-12
3.41614e-11
2.69621e-11
4.00256e-11
4.0767e-11
4.41377e-11
4.47207e-11
4.64343e-11
4.46979e-11
4.70738e-11
4.32428e-11
4.6299e-11
4.13731e-11
4.43607e-11
3.94739e-11
4.14848e-11
3.76888e-11
3.78639e-11
3.60722e-11
3.36575e-11
3.46458e-11
2.89962e-11
3.34186e-11
2.39863e-11
3.23942e-11
1.87146e-11
3.15736e-11
1.32526e-11
3.09566e-11
7.66055e-12
3.05426e-11
1.99132e-12
3.03317e-11
-3.70618e-12
3.03249e-11
-9.3837e-12
3.05241e-11
-1.49902e-11
3.09328e-11
-2.04677e-11
3.15559e-11
-2.57474e-11
3.2399e-11
-3.07453e-11
3.34678e-11
-3.53565e-11
3.47681e-11
-3.94498e-11
3.63038e-11
-4.28607e-11
3.80735e-11
-4.53851e-11
4.0063e-11
-4.67757e-11
4.22252e-11
-4.67472e-11
4.44226e-11
-4.50074e-11
4.62719e-11
-4.13377e-11
4.67472e-11
-3.57493e-11
4.32763e-11
-2.86715e-11
2.99236e-11
-2.08872e-11
-5.36806e-12
-1.36291e-11
-8.25055e-11
-6.26962e-12
-2.10373e-10
-2.81816e-10
1.91061e-12
-2.84411e-10
5.0142e-12
-2.16165e-10
8.78015e-12
-8.95684e-11
1.31471e-11
-1.30539e-11
1.7478e-11
2.26311e-11
2.1307e-11
3.6938e-11
2.43184e-11
4.17093e-11
2.63841e-11
4.26322e-11
2.75003e-11
4.21266e-11
2.77297e-11
4.11437e-11
2.71635e-11
4.00401e-11
2.59022e-11
3.89501e-11
2.40454e-11
3.7929e-11
2.16872e-11
3.70039e-11
1.89143e-11
3.61915e-11
1.58053e-11
3.55032e-11
1.24318e-11
3.49472e-11
8.85892e-12
3.45294e-11
5.14724e-12
3.42542e-11
1.35381e-12
3.41251e-11
-2.46608e-12
3.41448e-11
-6.2571e-12
3.43151e-11
-9.96201e-12
3.46377e-11
-1.35196e-11
3.51135e-11
-1.68628e-11
3.57422e-11
-1.99173e-11
3.65223e-11
-2.25996e-11
3.74504e-11
-2.48154e-11
3.85197e-11
-2.64594e-11
3.97176e-11
-2.74161e-11
4.10196e-11
-2.75636e-11
4.23727e-11
-2.67841e-11
4.36431e-11
-2.49847e-11
4.44725e-11
-2.21397e-11
4.39022e-11
-1.83597e-11
3.94963e-11
-1.39702e-11
2.55341e-11
-9.4466e-12
-9.89163e-12
-5.5228e-12
-8.64293e-11
-2.18517e-12
-2.13711e-10
-2.84001e-10
8.6425e-13
-2.85275e-10
2.49491e-12
-2.17795e-10
4.60034e-12
-9.16738e-11
7.04391e-12
-1.54974e-11
9.54742e-12
2.01276e-11
1.18545e-11
3.4631e-11
1.37799e-11
3.97839e-11
1.52226e-11
4.11895e-11
1.61441e-11
4.1205e-11
1.65462e-11
4.07417e-11
1.64537e-11
4.01326e-11
1.59048e-11
3.94989e-11
1.49453e-11
3.88885e-11
1.36243e-11
3.8325e-11
1.1992e-11
3.78238e-11
1.00987e-11
3.73965e-11
7.99386e-12
3.70521e-11
5.72618e-12
3.67971e-11
3.34357e-12
3.66368e-11
8.93171e-13
3.65755e-11
-1.5782e-12
3.66162e-11
-4.02332e-12
3.67602e-11
-6.39389e-12
3.70082e-11
-8.63985e-12
3.73594e-11
-1.07093e-11
3.78116e-11
-1.25479e-11
3.8361e-11
-1.40992e-11
3.90017e-11
-1.53045e-11
3.97249e-11
-1.6104e-11
4.05171e-11
-1.64397e-11
4.13553e-11
-1.62582e-11
4.21912e-11
-1.55184e-11
4.29033e-11
-1.42024e-11
4.31566e-11
-1.23365e-11
4.20363e-11
-1.00184e-11
3.71783e-11
-7.44616e-12
2.29618e-11
-4.89742e-12
-1.24404e-11
-2.69557e-12
-8.86311e-11
-9.6234e-13
-2.15444e-10
-2.84964e-10
4.24384e-13
-2.857e-10
1.31443e-12
-2.18685e-10
2.51059e-12
-9.28699e-11
3.91392e-12
-1.69008e-11
5.37297e-12
1.86685e-11
6.74972e-12
3.32542e-11
7.938e-12
3.85957e-11
8.87193e-12
4.02556e-11
9.51735e-12
4.05596e-11
9.86225e-12
4.03968e-11
9.90935e-12
4.00855e-11
9.67127e-12
3.9737e-11
9.16757e-12
3.93922e-11
8.42264e-12
3.90699e-11
7.46433e-12
3.87821e-11
6.32289e-12
3.85379e-11
5.03024e-12
3.83447e-11
3.61943e-12
3.82079e-11
2.12428e-12
3.8132e-11
5.79156e-13
3.81207e-11
-9.8112e-13
3.81764e-11
-2.52123e-12
3.83003e-11
-4.0054e-12
3.84924e-11
-5.39745e-12
3.87515e-11
-6.66111e-12
3.90753e-11
-7.76013e-12
3.946e-11
-8.65868e-12
3.99002e-11
-9.32215e-12
4.03884e-11
-9.71835e-12
4.09133e-11
-9.8191e-12
4.1456e-11
-9.60266e-12
4.19748e-11
-9.0573e-12
4.2358e-11
-8.18718e-12
4.22865e-11
-7.02189e-12
4.0871e-11
-5.62837e-12
3.57848e-11
-4.12231e-12
2.14558e-11
-2.6596e-12
-1.39031e-11
-1.40768e-12
-8.9883e-11
-4.65024e-13
-2.16387e-10
-2.85429e-10
1.97384e-13
-2.85897e-10
6.79159e-13
-2.19167e-10
1.36375e-12
-9.35545e-11
2.18105e-12
-1.77181e-11
3.04322e-12
1.78064e-11
3.86917e-12
3.24283e-11
4.5968e-12
3.78681e-11
5.18538e-12
3.9667e-11
5.61103e-12
4.01339e-11
5.86203e-12
4.01458e-11
5.93524e-12
4.00123e-11
5.83394e-12
3.98383e-11
5.56618e-12
3.966e-11
5.14395e-12
3.94921e-11
4.58249e-12
3.93436e-11
3.89964e-12
3.92208e-11
3.11529e-12
3.91291e-11
2.25075e-12
3.90725e-11
1.32846e-12
3.90543e-11
3.7183e-13
3.90773e-11
-5.95101e-13
3.91434e-11
-1.54788e-12
3.92531e-11
-2.46194e-12
3.94064e-11
-3.31285e-12
3.96024e-11
-4.07664e-12
3.98391e-11
-4.73014e-12
4.01135e-11
-5.25136e-12
4.04215e-11
-5.6203e-12
4.07573e-11
-5.81974e-12
4.11127e-11
-5.83614e-12
4.14724e-11
-5.6609e-12
4.17995e-11
-5.29219e-12
4.19893e-11
-4.73816e-12
4.17324e-11
-4.02097e-12
4.01538e-11
-3.18317e-12
3.4947e-11
-2.29296e-12
2.05655e-11
-1.44219e-12
-1.47539e-11
-7.26942e-13
-9.05983e-11
-2.15874e-13
-2.16898e-10
-2.85644e-10
6.41284e-14
-2.85961e-10
3.11141e-13
-2.19414e-10
7.00644e-13
-9.3944e-11
1.1813e-12
-1.81987e-11
1.69699e-12
1.72907e-11
2.19712e-12
3.19282e-11
2.64411e-12
3.74211e-11
3.01292e-12
3.92982e-11
3.28795e-12
3.98589e-11
3.46052e-12
3.99732e-11
3.52694e-12
3.99459e-11
3.48738e-12
3.98779e-11
3.3452e-12
3.98021e-11
3.10643e-12
3.97309e-11
2.77948e-12
3.96705e-11
2.37472e-12
3.96255e-11
1.90425e-12
3.95995e-11
1.3815e-12
3.95952e-11
8.20902e-13
3.96149e-11
2.37726e-13
3.96605e-11
-3.52163e-13
3.97333e-11
-9.32676e-13
3.98336e-11
-1.48767e-12
3.99614e-11
-2.00131e-12
4.0116e-11
-2.45827e-12
4.02961e-11
-2.84405e-12
4.04993e-11
-3.14537e-12
4.07228e-11
-3.35069e-12
4.09626e-11
-3.4507e-12
4.12127e-11
-3.43879e-12
4.14605e-11
-3.31171e-12
4.16724e-11
-3.07031e-12
4.17479e-11
-2.72152e-12
4.13836e-11
-2.28035e-12
3.97126e-11
-1.77332e-12
3.44399e-11
-1.24216e-12
2.00344e-11
-7.41743e-13
-1.52543e-11
-3.37178e-13
-9.10029e-11
-7.51797e-14
-2.1716e-10
-2.8572e-10
-2.21296e-14
-2.85939e-10
9.21968e-14
-2.19528e-10
3.08144e-13
-9.41599e-11
5.91346e-13
-1.84819e-11
9.02391e-13
1.69797e-11
1.20838e-12
3.16222e-11
1.48545e-12
3.7144e-11
1.71784e-12
3.90658e-11
1.89559e-12
3.96811e-11
2.01279e-12
3.9856e-11
2.06646e-12
3.98922e-11
2.056e-12
3.98883e-11
1.98286e-12
3.98753e-11
1.85022e-12
3.98635e-11
1.66267e-12
3.9858e-11
1.42623e-12
3.9862e-11
1.14819e-12
3.98776e-11
8.36954e-13
3.99065e-11
5.01634e-13
3.99502e-11
1.51916e-13
4.00102e-11
-2.02119e-13
4.00873e-11
-5.50182e-13
4.01817e-11
-8.81957e-13
4.02932e-11
-1.18734e-12
4.04214e-11
-1.45679e-12
4.05655e-11
-1.6814e-12
4.07239e-11
-1.85322e-12
4.08946e-11
-1.96552e-12
4.10749e-11
-2.01314e-12
4.12603e-11
-1.99265e-12
4.144e-11
-1.90288e-12
4.15826e-11
-1.74528e-12
4.15903e-11
-1.5247e-12
4.1163e-11
-1.25091e-12
3.94388e-11
-9.40518e-13
3.41295e-11
-6.19469e-13
1.97133e-11
-3.23906e-13
-1.55499e-11
-9.89879e-14
-9.12278e-11
1.17685e-14
-2.17271e-10
-2.85708e-10
-7.30349e-14
-2.85866e-10
-4.83876e-14
-2.19553e-10
6.47487e-14
-9.42731e-11
2.32794e-13
-1.86499e-11
4.23422e-13
1.6789e-11
6.1396e-13
3.14316e-11
7.88738e-13
3.69693e-11
9.37682e-13
3.89169e-11
1.05451e-12
3.95643e-11
1.13543e-12
3.97751e-11
1.17834e-12
3.98493e-11
1.18258e-12
3.98841e-11
1.14867e-12
3.99091e-11
1.07828e-12
3.99339e-11
9.74036e-13
3.99623e-11
8.39555e-13
3.99964e-11
6.79262e-13
4.00379e-11
4.98256e-13
4.00875e-11
3.02144e-13
4.01463e-11
9.69486e-14
4.02154e-11
-1.10944e-13
4.02952e-11
-3.15049e-13
4.03858e-11
-5.08951e-13
4.04871e-11
-6.86382e-13
4.05989e-11
-8.4144e-13
4.07206e-11
-9.68709e-13
4.08512e-11
-1.06341e-12
4.09893e-11
-1.12158e-12
4.11331e-11
-1.14028e-12
4.1279e-11
-1.11774e-12
4.14175e-11
-1.05357e-12
4.15184e-11
-9.4895e-13
4.14856e-11
-8.07313e-13
4.10213e-11
-6.34874e-13
3.92663e-11
-4.42393e-13
3.39371e-11
-2.46912e-13
1.95178e-11
-7.19772e-14
-1.57248e-11
5.11483e-14
-9.1351e-11
7.2565e-14
-2.17292e-10
-2.85635e-10
-1.06148e-13
-2.8576e-10
-1.44943e-13
-2.19514e-10
-9.30628e-14
-9.43249e-11
7.82005e-15
-1.87508e-11
1.27522e-13
1.66693e-11
2.49478e-13
3.13097e-11
3.63068e-13
3.68557e-11
4.6171e-13
3.88183e-11
5.41352e-13
3.94846e-11
5.9964e-13
3.97168e-11
6.3527e-13
3.98137e-11
6.4766e-13
3.98717e-11
6.36861e-13
3.992e-11
6.03686e-13
3.99671e-11
5.49757e-13
4.00162e-11
4.77357e-13
4.00688e-11
3.89198e-13
4.0126e-11
2.88227e-13
4.01885e-11
1.77796e-13
4.02567e-11
6.16693e-14
4.03315e-11
-5.61029e-14
4.0413e-11
-1.71464e-13
4.05011e-11
-2.80488e-13
4.05961e-11
-3.79402e-13
4.06978e-11
-4.64623e-13
4.08058e-11
-5.32798e-13
4.09193e-11
-5.80966e-13
4.10374e-11
-6.06844e-13
4.11589e-11
-6.08763e-13
4.1281e-11
-5.8581e-13
4.13945e-11
-5.37887e-13
4.14705e-11
-4.65795e-13
4.14135e-11
-3.71754e-13
4.09273e-11
-2.59831e-13
3.91544e-11
-1.36835e-13
3.38141e-11
-1.3968e-14
1.9395e-11
8.92324e-14
-1.5828e-11
1.41994e-13
-9.14037e-11
1.08206e-13
-2.17258e-10
-2.85527e-10
-1.30022e-13
-2.8563e-10
-2.0485e-13
-2.19439e-10
-1.9675e-13
-9.4333e-11
-1.39818e-13
-1.88077e-11
-6.20069e-14
1.65915e-11
1.98641e-14
3.12278e-11
9.75631e-14
3.6778e-11
1.66586e-13
3.87492e-11
2.24303e-13
3.94269e-11
2.69229e-13
3.96718e-11
3.00506e-13
3.97825e-11
3.17718e-13
3.98545e-11
3.20898e-13
3.99168e-11
3.10542e-13
3.99774e-11
2.87624e-13
4.00391e-11
2.53405e-13
4.0103e-11
2.09463e-13
4.017e-11
1.57619e-13
4.02403e-11
9.99413e-14
4.03144e-11
3.88347e-14
4.03925e-11
-2.3264e-14
4.0475e-11
-8.39545e-14
4.05618e-11
-1.40829e-13
4.06529e-11
-1.91523e-13
4.07485e-11
-2.33799e-13
4.08481e-11
-2.65676e-13
4.09511e-11
-2.8532e-13
4.10571e-11
-2.91459e-13
4.11651e-11
-2.8306e-13
4.12726e-11
-2.59718e-13
4.13711e-11
-2.2127e-13
4.1432e-11
-1.68339e-13
4.13606e-11
-1.0237e-13
4.08613e-11
-2.6032e-14
3.90781e-11
5.59649e-14
3.37321e-11
1.34989e-13
1.9316e-11
1.94176e-13
-1.58872e-11
2.03805e-13
-9.14134e-11
1.31094e-13
-2.17186e-10
-2.85396e-10
-1.48322e-13
-2.85482e-10
-2.47731e-13
-2.1934e-10
-2.66486e-13
-9.43143e-11
-2.36816e-13
-1.88374e-11
-1.85576e-13
1.65403e-11
-1.27921e-13
3.11702e-11
-7.1408e-14
3.67215e-11
-1.96919e-14
3.86975e-11
2.53582e-14
3.93818e-11
6.26686e-14
3.96346e-11
9.1659e-14
3.97535e-11
1.12105e-13
3.98341e-11
1.24119e-13
3.99047e-11
1.28071e-13
3.99734e-11
1.24452e-13
4.00427e-11
1.13909e-13
4.01136e-11
9.73189e-14
4.01866e-11
7.58627e-14
4.02618e-11
5.0889e-14
4.03393e-11
2.38428e-14
4.04196e-11
-3.82967e-15
4.05027e-11
-3.069e-14
4.05887e-11
-5.5278e-14
4.06775e-11
-7.60971e-14
4.07693e-11
-9.17401e-14
4.08637e-11
-1.00984e-13
4.09604e-11
-1.02808e-13
4.10589e-11
-9.6444e-14
4.11587e-11
-8.12668e-14
4.12574e-11
-5.70599e-14
4.13469e-11
-2.37291e-14
4.13987e-11
1.83274e-14
4.13185e-11
6.81494e-14
4.08114e-11
1.23903e-13
3.90223e-11
1.8187e-13
3.36741e-11
2.34187e-13
1.92636e-11
2.65383e-13
-1.59184e-11
2.47873e-13
-9.13959e-11
1.49315e-13
-2.17087e-10
-2.85247e-10
-1.63761e-13
-2.85318e-10
-2.81459e-13
-2.19222e-10
-3.1771e-13
-9.4278e-11
-3.04703e-13
-1.88504e-11
-2.69234e-13
1.65048e-11
-2.25923e-13
3.11269e-11
-1.81795e-13
3.66774e-11
-1.40064e-13
3.86558e-11
-1.0226e-13
3.9344e-11
-6.90808e-14
3.96014e-11
-4.08934e-14
3.97253e-11
-1.78419e-14
3.98111e-11
1.30824e-16
3.98868e-11
1.31901e-14
3.99604e-11
2.16167e-14
4.00343e-11
2.58147e-14
4.01094e-11
2.63855e-14
4.0186e-11
2.4028e-14
4.02641e-11
1.95109e-14
4.03438e-11
1.36805e-14
4.04254e-11
7.42934e-15
4.0509e-11
1.66839e-15
4.05945e-11
-2.6499e-15
4.06818e-11
-4.60823e-15
4.07712e-11
-3.41104e-15
4.08625e-11
1.7063e-15
4.09552e-11
1.12546e-14
4.10493e-11
2.58038e-14
4.11442e-11
4.5667e-14
4.12375e-11
7.10961e-14
4.13214e-11
1.02056e-13
4.13677e-11
1.38213e-13
4.12823e-11
1.7888e-13
4.07708e-11
2.22656e-13
3.89785e-11
2.66374e-13
3.36303e-11
3.02864e-13
1.92271e-11
3.17135e-13
-1.59327e-11
2.81905e-13
-9.13607e-11
1.64658e-13
-2.1697e-10
-2.85082e-10
-1.77411e-13
-2.85141e-10
-3.09638e-13
-2.1909e-10
-3.57795e-13
-9.42299e-11
-3.54986e-13
-1.88532e-11
-3.2869e-13
1.64785e-11
-2.93644e-13
3.10918e-11
-2.56629e-13
3.66404e-11
-2.20549e-13
3.86197e-11
-1.86608e-13
3.931e-11
-1.5532e-13
3.95701e-11
-1.2698e-13
3.9697e-11
-1.01765e-13
3.97859e-11
-7.97188e-14
3.98647e-11
-6.07186e-14
3.99414e-11
-4.45163e-14
4.00181e-11
-3.08229e-14
4.00957e-11
-1.92772e-14
4.01745e-11
-9.53015e-15
4.02544e-11
-1.11169e-15
4.03354e-11
6.50211e-15
4.04178e-11
1.38975e-14
4.05016e-11
2.16236e-14
4.05868e-11
3.02237e-14
4.06732e-11
4.0302e-14
4.07611e-11
5.23096e-14
4.08505e-11
6.672e-14
4.09408e-11
8.38116e-14
4.10322e-11
1.03986e-13
4.1124e-11
1.27415e-13
4.12141e-11
1.54215e-13
4.12946e-11
1.84395e-13
4.13375e-11
2.17649e-13
4.12491e-11
2.53445e-13
4.07349e-11
2.90584e-13
3.89413e-11
3.26191e-13
3.35947e-11
3.534e-13
1.91999e-11
3.57286e-13
-1.59367e-11
3.10041e-13
-9.13135e-11
1.78336e-13
-2.16838e-10
-2.84904e-10
-1.901e-13
-2.8495e-10
-3.34263e-13
-2.18946e-10
-3.91071e-13
-9.41731e-11
-3.94832e-13
-1.88494e-11
-3.73977e-13
1.64577e-11
-3.43535e-13
3.10614e-11
-3.10278e-13
3.66071e-11
-2.77021e-13
3.85864e-11
-2.44852e-13
3.92779e-11
-2.14205e-13
3.95395e-11
-1.85333e-13
3.96682e-11
-1.58373e-13
3.97589e-11
-1.33352e-13
3.98397e-11
-1.1013e-13
3.99182e-11
-8.8546e-14
3.99965e-11
-6.84644e-14
4.00756e-11
-4.9714e-14
4.01557e-11
-3.20407e-14
4.02367e-11
-1.51539e-14
4.03185e-11
1.28526e-15
4.04013e-11
1.76228e-14
4.04853e-11
3.41802e-14
4.05702e-11
5.1298e-14
4.06561e-11
6.92707e-14
4.07431e-11
8.84572e-14
4.08313e-11
1.09067e-13
4.09202e-11
1.31424e-13
4.10098e-11
1.557e-13
4.10997e-11
1.81947e-13
4.11878e-11
2.10212e-13
4.12663e-11
2.40478e-13
4.13072e-11
2.72604e-13
4.12169e-11
3.06142e-13
4.07014e-11
3.39966e-13
3.89075e-11
3.7123e-13
3.35634e-11
3.93114e-13
1.9178e-11
3.90474e-13
-1.5934e-11
3.34645e-13
-9.12577e-11
1.90863e-13
-2.16694e-10
-2.84713e-10
-2.02099e-13
-2.84748e-10
-3.56931e-13
-2.18791e-10
-4.20497e-13
-9.41095e-11
-4.28662e-13
-1.88412e-11
-4.10966e-13
1.644e-11
-3.82868e-13
3.10333e-11
-3.5126e-13
3.65755e-11
-3.1901e-13
3.85542e-11
-2.87293e-13
3.92462e-11
-2.56554e-13
3.95087e-11
-2.26934e-13
3.96385e-11
-1.9841e-13
3.97304e-11
-1.70909e-13
3.98122e-11
-1.44394e-13
3.98917e-11
-1.18911e-13
3.99711e-11
-9.444e-14
4.00512e-11
-7.08204e-14
4.01321e-11
-4.77492e-14
4.02137e-11
-2.50589e-14
4.02958e-11
-2.56913e-15
4.03789e-11
1.98231e-14
4.04629e-11
4.23109e-14
4.05477e-11
6.51684e-14
4.06332e-11
8.86108e-14
4.07197e-11
1.12825e-13
4.0807e-11
1.37909e-13
4.08951e-11
1.64053e-13
4.09836e-11
1.91411e-13
4.10723e-11
2.20002e-13
4.11592e-11
2.49826e-13
4.12364e-11
2.80844e-13
4.12762e-11
3.12934e-13
4.11848e-11
3.45729e-13
4.06686e-11
3.78155e-13
3.8875e-11
4.07364e-13
3.35342e-11
4.26383e-13
1.9159e-11
4.19593e-13
-1.59273e-11
3.57179e-13
-9.11953e-11
2.0286e-13
-2.1654e-10
-2.8451e-10
-2.13867e-13
-2.84534e-10
-3.78658e-13
-2.18626e-10
-4.47902e-13
-9.40402e-11
-4.59065e-13
-1.88301e-11
-4.43033e-13
1.64239e-11
-4.15913e-13
3.10061e-11
-3.84836e-13
3.65444e-11
-3.52732e-13
3.85221e-11
-3.20779e-13
3.92142e-11
-2.89362e-13
3.94773e-11
-2.58557e-13
3.96077e-11
-2.28332e-13
3.97001e-11
-1.98671e-13
3.97825e-11
-1.69633e-13
3.98626e-11
-1.41272e-13
3.99427e-11
-1.1353e-13
4.00234e-11
-8.62243e-14
4.01048e-11
-5.92084e-14
4.01866e-11
-3.23872e-14
4.0269e-11
-5.72939e-15
4.03522e-11
2.09057e-14
4.04363e-11
4.76334e-14
4.05209e-11
7.46013e-14
4.06062e-11
1.02014e-13
4.06923e-11
1.29924e-13
4.07791e-11
1.58387e-13
4.08666e-11
1.87496e-13
4.09545e-11
2.1735e-13
4.10425e-11
2.47993e-13
4.11285e-11
2.79428e-13
4.1205e-11
3.11598e-13
4.1244e-11
3.44343e-13
4.11521e-11
3.77314e-13
4.06356e-11
4.09495e-13
3.88428e-11
4.38018e-13
3.35057e-11
4.55685e-13
1.91413e-11
4.46229e-13
-1.59178e-11
3.78507e-13
-9.11276e-11
2.14493e-13
-2.16376e-10
-2.84296e-10
-2.25475e-13
-2.84309e-10
-3.99741e-13
-2.18452e-10
-4.73816e-13
-9.39661e-11
-4.87088e-13
-1.88168e-11
-4.71879e-13
1.64087e-11
-4.44986e-13
3.09793e-11
-4.13818e-13
3.65133e-11
-3.81382e-13
3.84897e-11
-3.48745e-13
3.91816e-11
-3.16232e-13
3.94448e-11
-2.83951e-13
3.95754e-11
-2.5199e-13
3.96682e-11
-2.20464e-13
3.9751e-11
-1.89402e-13
3.98316e-11
-1.58735e-13
3.9912e-11
-1.2836e-13
3.9993e-11
-9.81097e-14
4.00745e-11
-6.80136e-14
4.01565e-11
-3.80973e-14
4.02391e-11
-8.32291e-15
4.03224e-11
2.14471e-14
4.04065e-11
5.13898e-14
4.0491e-11
8.15641e-14
4.0576e-11
1.12031e-13
4.06618e-11
1.42799e-13
4.07484e-11
1.73895e-13
4.08355e-11
2.05434e-13
4.0923e-11
2.3748e-13
4.10104e-11
2.70023e-13
4.1096e-11
3.03059e-13
4.11719e-11
3.36537e-13
4.12105e-11
3.70342e-13
4.11182e-11
4.04124e-13
4.06018e-11
4.3681e-13
3.88101e-11
4.65491e-13
3.3477e-11
4.82687e-13
1.91241e-11
4.71439e-13
-1.59066e-11
3.99153e-13
-9.10553e-11
2.2597e-13
-2.16203e-10
-2.8407e-10
-2.37016e-13
-2.84072e-10
-4.20465e-13
-2.18268e-10
-4.99054e-13
-9.38875e-11
-5.13949e-13
-1.88019e-11
-4.99013e-13
1.63938e-11
-4.71816e-13
3.09521e-11
-4.40054e-13
3.64815e-11
-4.06759e-13
3.84564e-11
-3.73045e-13
3.91478e-11
-3.39247e-13
3.9411e-11
-3.0556e-13
3.95418e-11
-2.72111e-13
3.96347e-11
-2.38946e-13
3.97178e-11
-2.06015e-13
3.97986e-11
-1.73227e-13
3.98792e-11
-1.40551e-13
3.99603e-11
-1.07972e-13
4.00419e-11
-7.54631e-14
4.0124e-11
-4.30828e-14
4.02067e-11
-1.07484e-14
4.029e-11
2.17018e-14
4.0374e-11
5.42965e-14
4.04583e-11
8.70737e-14
4.05432e-11
1.20001e-13
4.06289e-11
1.53096e-13
4.07153e-11
1.86447e-13
4.08021e-11
2.2014e-13
4.08892e-11
2.54202e-13
4.09764e-11
2.88546e-13
4.10616e-11
3.23153e-13
4.11373e-11
3.58049e-13
4.11756e-11
3.93162e-13
4.10831e-11
4.28124e-13
4.05668e-11
4.61796e-13
3.87764e-11
4.91098e-13
3.34477e-11
5.08295e-13
1.91069e-11
4.95722e-13
-1.5894e-11
4.19324e-13
-9.09789e-11
2.37272e-13
-2.16021e-10
-2.83832e-10
-2.4821e-13
-2.83824e-10
-4.40721e-13
-2.18076e-10
-5.23661e-13
-9.38046e-11
-5.39906e-13
-1.87857e-11
-5.2482e-13
1.63787e-11
-4.96817e-13
3.09241e-11
-4.63998e-13
3.64487e-11
-4.29575e-13
3.8422e-11
-3.94672e-13
3.91129e-11
-3.59663e-13
3.9376e-11
-3.24695e-13
3.95068e-11
-2.89807e-13
3.95998e-11
-2.54998e-13
3.96829e-11
-2.20249e-13
3.97638e-11
-1.85562e-13
3.98445e-11
-1.50905e-13
3.99256e-11
-1.16318e-13
4.00073e-11
-8.17584e-14
4.00895e-11
-4.72007e-14
4.01721e-11
-1.25694e-14
4.02554e-11
2.21891e-14
4.03392e-11
5.70236e-14
4.04235e-11
9.1931e-14
4.05083e-11
1.26939e-13
4.05939e-11
1.62118e-13
4.06801e-11
1.97511e-13
4.07667e-11
2.33166e-13
4.08536e-11
2.69047e-13
4.09405e-11
3.05083e-13
4.10256e-11
3.41286e-13
4.11011e-11
3.77731e-13
4.11391e-11
4.14324e-13
4.10465e-11
4.5064e-13
4.05305e-11
4.855e-13
3.87416e-11
5.15712e-13
3.34175e-11
5.33237e-13
1.90894e-11
5.19665e-13
-1.58805e-11
4.39353e-13
-9.08986e-11
2.48559e-13
-2.1583e-10
-2.83584e-10
-2.59511e-13
-2.83564e-10
-4.60893e-13
-2.17875e-10
-5.47865e-13
-9.37176e-11
-5.65229e-13
-1.87683e-11
-5.49843e-13
1.63633e-11
-5.20934e-13
3.08951e-11
-4.8697e-13
3.64148e-11
-4.51304e-13
3.83863e-11
-4.15148e-13
3.90767e-11
-3.78831e-13
3.93397e-11
-3.42429e-13
3.94704e-11
-3.05991e-13
3.95634e-11
-2.69522e-13
3.96465e-11
-2.33021e-13
3.97273e-11
-1.96546e-13
3.98081e-11
-1.60096e-13
3.98892e-11
-1.23578e-13
3.99708e-11
-8.70419e-14
4.00529e-11
-5.04626e-14
4.01355e-11
-1.3795e-14
4.02187e-11
2.29062e-14
4.03025e-11
5.96409e-14
4.03868e-11
9.64418e-14
4.04715e-11
1.33389e-13
4.05569e-11
1.70516e-13
4.06429e-11
2.07802e-13
4.07294e-11
2.45226e-13
4.08161e-11
2.82776e-13
4.0903e-11
3.20475e-13
4.09879e-11
3.58366e-13
4.10632e-11
3.9645e-13
4.11011e-11
4.34585e-13
4.10084e-11
4.7233e-13
4.04927e-11
5.08487e-13
3.87054e-11
5.39803e-13
3.33862e-11
5.57888e-13
1.90713e-11
5.43481e-13
-1.58661e-11
4.59361e-13
-9.08145e-11
2.59831e-13
-2.15631e-10
-2.83324e-10
-2.70778e-13
-2.83293e-10
-4.80765e-13
-2.17665e-10
-5.71463e-13
-9.36269e-11
-5.89697e-13
-1.87501e-11
-5.73944e-13
1.63475e-11
-5.44177e-13
3.08654e-11
-5.09112e-13
3.63797e-11
-4.72157e-13
3.83493e-11
-4.34527e-13
3.90391e-11
-3.9664e-13
3.93018e-11
-3.58683e-13
3.94325e-11
-3.20707e-13
3.95254e-11
-2.82692e-13
3.96084e-11
-2.4459e-13
3.96892e-11
-2.06348e-13
3.97698e-11
-1.68048e-13
3.98509e-11
-1.2975e-13
3.99325e-11
-9.14273e-14
4.00146e-11
-5.30678e-14
4.00971e-11
-1.46562e-14
4.01803e-11
2.38127e-14
4.02641e-11
6.23306e-14
4.03483e-11
1.00943e-13
4.04329e-11
1.39736e-13
4.05181e-11
1.78678e-13
4.0604e-11
2.17686e-13
4.06904e-11
2.56768e-13
4.0777e-11
2.95979e-13
4.08637e-11
3.35369e-13
4.09485e-11
3.74961e-13
4.10236e-11
4.1468e-13
4.10613e-11
4.54346e-13
4.09687e-11
4.93567e-13
4.04535e-11
5.31147e-13
3.86678e-11
5.63677e-13
3.33536e-11
5.82384e-13
1.90526e-11
5.67161e-13
-1.58508e-11
4.79261e-13
-9.07266e-11
2.71085e-13
-2.15422e-10
-2.83053e-10
-2.82019e-13
-2.83011e-10
-5.00559e-13
-2.17446e-10
-5.9498e-13
-9.35325e-11
-6.14085e-13
-1.87309e-11
-5.979e-13
1.63313e-11
-5.67117e-13
3.08346e-11
-5.30736e-13
3.63433e-11
-4.92292e-13
3.83109e-11
-4.53108e-13
3.89999e-11
-4.13668e-13
3.92624e-11
-3.74176e-13
3.9393e-11
-3.34654e-13
3.94859e-11
-2.9504e-13
3.95688e-11
-2.55284e-13
3.96494e-11
-2.15412e-13
3.973e-11
-1.75458e-13
3.98109e-11
-1.35518e-13
3.98926e-11
-9.55404e-14
3.99746e-11
-5.55159e-14
4.00571e-11
-1.54303e-14
4.01402e-11
2.47469e-14
4.02239e-11
6.50187e-14
4.0308e-11
1.05392e-13
4.03925e-11
1.459e-13
4.04776e-11
1.86512e-13
4.05634e-11
2.27184e-13
4.06497e-11
2.67963e-13
4.07362e-11
3.08898e-13
4.08228e-11
3.49996e-13
4.09074e-11
3.91225e-13
4.09823e-11
4.32543e-13
4.102e-11
4.73806e-13
4.09274e-11
5.14584e-13
4.04127e-11
5.53615e-13
3.86288e-11
5.87343e-13
3.33199e-11
6.06635e-13
1.90333e-11
5.90616e-13
-1.58348e-11
4.98985e-13
-9.0635e-11
2.82255e-13
-2.15206e-10
-2.8277e-10
-2.93178e-13
-2.82718e-10
-5.20381e-13
-2.17219e-10
-6.18513e-13
-9.34344e-11
-6.38398e-13
-1.8711e-11
-6.21588e-13
1.63145e-11
-5.89559e-13
3.08025e-11
-5.51667e-13
3.63054e-11
-5.1166e-13
3.82709e-11
-4.70982e-13
3.89592e-11
-4.30094e-13
3.92215e-11
-3.89104e-13
3.9352e-11
-3.47975e-13
3.94447e-11
-3.067e-13
3.95275e-11
-2.65302e-13
3.96081e-11
-2.23841e-13
3.96885e-11
-1.82425e-13
3.97695e-11
-1.40954e-13
3.98511e-11
-9.94019e-14
3.99331e-11
-5.77685e-14
4.00155e-11
-1.60176e-14
4.00984e-11
2.58535e-14
4.0182e-11
6.78213e-14
4.0266e-11
1.09875e-13
4.03504e-11
1.52022e-13
4.04354e-11
1.94253e-13
4.05211e-11
2.36607e-13
4.06073e-11
2.79125e-13
4.06937e-11
3.2179e-13
4.07801e-11
3.64536e-13
4.08647e-11
4.0736e-13
4.09395e-11
4.50263e-13
4.09771e-11
4.93123e-13
4.08845e-11
5.35481e-13
4.03703e-11
5.75966e-13
3.85883e-11
6.10859e-13
3.3285e-11
6.30732e-13
1.90135e-11
6.13958e-13
-1.5818e-11
5.18706e-13
-9.05397e-11
2.93448e-13
-2.1498e-10
-2.82477e-10
-3.04363e-13
-2.82414e-10
-5.40153e-13
-2.16983e-10
-6.42032e-13
-9.33325e-11
-6.62616e-13
-1.86905e-11
-6.45066e-13
1.62969e-11
-6.11729e-13
3.07691e-11
-5.72398e-13
3.62661e-11
-5.30969e-13
3.82295e-11
-4.88836e-13
3.89171e-11
-4.46414e-13
3.91791e-11
-4.03804e-13
3.93093e-11
-3.61063e-13
3.9402e-11
-3.18188e-13
3.94846e-11
-2.75278e-13
3.95652e-11
-2.32342e-13
3.96456e-11
-1.89416e-13
3.97266e-11
-1.4636e-13
3.9808e-11
-1.03167e-13
3.98899e-11
-5.98681e-14
3.99722e-11
-1.64772e-14
4.0055e-11
2.70119e-14
4.01385e-11
7.05993e-14
4.02224e-11
1.14301e-13
4.03067e-11
1.58115e-13
4.03916e-11
2.02026e-13
4.04772e-11
2.46032e-13
4.05633e-11
2.90171e-13
4.06496e-11
3.34455e-13
4.07359e-11
3.78842e-13
4.08203e-11
4.233e-13
4.0895e-11
4.67808e-13
4.09326e-11
5.12237e-13
4.08401e-11
5.56142e-13
4.03264e-11
5.98103e-13
3.85463e-11
6.34254e-13
3.32489e-11
6.54793e-13
1.89929e-11
6.37295e-13
-1.58005e-11
5.38368e-13
-9.04408e-11
3.04575e-13
-2.14747e-10
-2.82172e-10
-3.15352e-13
-2.82099e-10
-5.59533e-13
-2.16739e-10
-6.65034e-13
-9.3227e-11
-6.86366e-13
-1.86691e-11
-6.68184e-13
1.62787e-11
-6.33635e-13
3.07346e-11
-5.92865e-13
3.62253e-11
-5.49907e-13
3.81865e-11
-5.06192e-13
3.88734e-11
-4.62146e-13
3.9135e-11
-4.17942e-13
3.92651e-11
-3.7366e-13
3.93577e-11
-3.29396e-13
3.94403e-11
-2.85059e-13
3.95208e-11
-2.40664e-13
3.96012e-11
-1.96118e-13
3.9682e-11
-1.51425e-13
3.97633e-11
-1.06618e-13
3.98451e-11
-6.17121e-14
3.99273e-11
-1.67188e-14
4.001e-11
2.83855e-14
4.00934e-11
7.36004e-14
4.01772e-11
1.18942e-13
4.02614e-11
1.64408e-13
4.03462e-11
2.09966e-13
4.04317e-11
2.5558e-13
4.05177e-11
3.01291e-13
4.06039e-11
3.47135e-13
4.069e-11
3.93117e-13
4.07743e-11
4.39205e-13
4.08489e-11
4.85344e-13
4.08864e-11
5.31356e-13
4.07941e-11
5.76777e-13
4.0281e-11
6.20178e-13
3.85029e-11
6.57585e-13
3.32115e-11
6.78817e-13
1.89717e-11
6.60605e-13
-1.57823e-11
5.58014e-13
-9.03382e-11
3.15682e-13
-2.14504e-10
-2.81857e-10
-3.26477e-13
-2.81772e-10
-5.7914e-13
-2.16486e-10
-6.88303e-13
-9.31178e-11
-7.10389e-13
-1.8647e-11
-6.91563e-13
1.62599e-11
-6.55785e-13
3.06988e-11
-6.13546e-13
3.61831e-11
-5.68984e-13
3.8142e-11
-5.2363e-13
3.8828e-11
-4.77986e-13
3.90894e-11
-4.32308e-13
3.92195e-11
-3.86584e-13
3.93119e-11
-3.40859e-13
3.93946e-11
-2.94993e-13
3.9475e-11
-2.48993e-13
3.95552e-11
-2.02816e-13
3.96358e-11
-1.56548e-13
3.97171e-11
-1.10184e-13
3.97988e-11
-6.3721e-14
3.98808e-11
-1.71096e-14
3.99634e-11
2.96786e-14
4.00466e-11
7.65898e-14
4.01303e-11
1.23565e-13
4.02144e-11
1.70621e-13
4.02991e-11
2.17763e-13
4.03845e-11
2.64994e-13
4.04704e-11
3.1232e-13
4.05565e-11
3.59755e-13
4.06426e-11
4.07292e-13
4.07267e-11
4.54937e-13
4.08013e-11
5.0264e-13
4.08387e-11
5.50223e-13
4.07465e-11
5.97176e-13
4.0234e-11
6.42022e-13
3.8458e-11
6.80652e-13
3.31728e-11
7.02571e-13
1.89498e-11
6.83706e-13
-1.57635e-11
5.7751e-13
-9.0232e-11
3.26742e-13
-2.14254e-10
-2.8153e-10
-3.37584e-13
-2.81434e-10
-5.9876e-13
-2.16225e-10
-7.11462e-13
-9.30051e-11
-7.34109e-13
-1.86244e-11
-7.14525e-13
1.62403e-11
-6.77481e-13
3.06618e-11
-6.33816e-13
3.61394e-11
-5.87791e-13
3.80959e-11
-5.40967e-13
3.87812e-11
-4.9388e-13
3.90423e-11
-4.46657e-13
3.91722e-11
-3.99409e-13
3.92647e-11
-3.52044e-13
3.93472e-11
-3.04605e-13
3.94275e-11
-2.57016e-13
3.95076e-11
-2.09339e-13
3.95882e-11
-1.61545e-13
3.96693e-11
-1.13608e-13
3.97508e-11
-6.55152e-14
3.98327e-11
-1.72551e-14
3.99152e-11
3.11583e-14
3.99982e-11
7.96523e-14
4.00818e-11
1.28187e-13
4.01658e-11
1.76803e-13
4.02505e-11
2.25504e-13
4.03358e-11
2.74309e-13
4.04216e-11
3.23233e-13
4.05076e-11