/*--------------------------------*- C++ -*----------------------------------*\
| =========                 |                                                 |
| \\      /  F ield         | OpenFOAM: The Open Source CFD Toolbox           |
|  \\    /   O peration     | Version:  2.2.1                                 |
|   \\  /    A nd           | Web:      www.OpenFOAM.org                      |
|    \\/     M anipulation  |                                                 |
\*---------------------------------------------------------------------------*/
FoamFile
{
    version     2.0;
    format      ascii;
    class       volVectorField;
    location    "2";
    object      U;
}
// * * * * * * * * * * * * * * * * * * * * * * * * * * * * * * * * * * * * * //

dimensions      [0 1 -1 0 0 0 0];

internalField   nonuniform List<vector> 
40000
(
(-1.99147e-33 0.000194047 -0.000555363)
(0 0.000705071 -0.000399303)
(4.40428e-33 0.000934193 -0.000129539)
(4.04853e-33 0.000974396 5.47932e-05)
(0 0.000903689 0.000142773)
(2.5914e-34 0.00079315 0.00016192)
(0 0.000680387 0.0001459)
(1.84046e-33 0.000579469 0.000118413)
(1.44208e-33 0.000493 9.12314e-05)
(0 0.000419639 6.83919e-05)
(5.57941e-35 0.000357135 5.03851e-05)
(-3.85739e-35 0.000303316 3.65274e-05)
(-7.44653e-34 0.000256337 2.59471e-05)
(4.37891e-40 0.00021471 1.7892e-05)
(5.10235e-34 0.000177241 1.17831e-05)
(4.09514e-34 0.000142967 7.19112e-06)
(3.14646e-34 0.000111103 3.80347e-06)
(-4.7631e-36 8.09891e-05 1.39603e-06)
(0 5.20636e-05 -1.85338e-07)
(-6.41529e-35 2.38344e-05 -1.03752e-06)
(1.54811e-35 -4.23622e-06 -1.20983e-06)
(-7.91831e-36 -3.25293e-05 -7.07156e-07)
(1.72883e-34 -6.15272e-05 5.05741e-07)
(5.34823e-34 -9.17707e-05 2.5151e-06)
(7.20283e-34 -0.000123829 5.46353e-06)
(9.24594e-34 -0.00015838 9.56516e-06)
(5.74049e-34 -0.000196246 1.51276e-05)
(0 -0.000238446 2.25812e-05)
(0 -0.000286266 3.25184e-05)
(0 -0.00034134 4.57298e-05)
(-1.19399e-33 -0.000405731 6.31755e-05)
(-1.32565e-33 -0.000481949 8.57152e-05)
(-1.25187e-34 -0.000572734 0.000113169)
(-1.82556e-33 -0.000680087 0.000141974)
(-2.42803e-33 -0.000802081 0.000160964)
(2.8201e-34 -0.00092464 0.0001471)
(0 -0.00100812 6.7453e-05)
(0 -0.000976795 -0.000104785)
(-4.20529e-34 -0.000745827 -0.000360787)
(-2.3522e-33 -0.000213916 -0.000518493)
(1.33854e-32 5.10248e-05 -0.00155887)
(-9.41845e-33 0.00025996 -0.00114479)
(-5.52235e-33 0.000364848 -0.000376765)
(6.53763e-34 0.000403028 0.000113844)
(-1.38178e-33 0.000401286 0.00032567)
(-1.00194e-33 0.000384045 0.00037468)
(2.58151e-33 0.000360639 0.0003521)
(1.96758e-33 0.000334101 0.000307061)
(8.32628e-34 0.000305908 0.000260655)
(1.94704e-33 0.000277127 0.000220007)
(2.26109e-34 0.000248481 0.000186486)
(5.8105e-34 0.000220387 0.000159505)
(1.01988e-33 0.000193048 0.000138021)
(6.06489e-34 0.000166532 0.000121036)
(5.08038e-34 0.000140816 0.000107725)
(-2.16227e-34 0.000115826 9.74444e-05)
(3.89527e-34 9.14465e-05 8.97052e-05)
(2.67346e-34 6.75446e-05 8.41447e-05)
(0 4.39731e-05 8.05082e-05)
(-2.66618e-34 2.05829e-05 7.86345e-05)
(-1.12796e-34 -2.83878e-06 7.84429e-05)
(8.33867e-35 -2.64041e-05 7.99312e-05)
(-3.70894e-34 -5.02916e-05 8.31698e-05)
(0 -7.46949e-05 8.83195e-05)
(3.04073e-34 -9.978e-05 9.5635e-05)
(-9.20124e-34 -0.000125713 0.000105485)
(-8.37384e-34 -0.000152647 0.000118379)
(1.281e-33 -0.000180714 0.000135001)
(2.61152e-33 -0.000209997 0.000156238)
(8.58489e-34 -0.000240505 0.000183195)
(0 -0.000272117 0.00021708)
(1.23263e-33 -0.000304504 0.000258726)
(4.93041e-34 -0.000337035 0.000307086)
(3.08873e-33 -0.000368762 0.000355382)
(1.72377e-33 -0.000398469 0.000382787)
(1.2388e-33 -0.000423609 0.000340316)
(-1.4076e-39 -0.000435222 0.000137089)
(-3.45109e-33 -0.000407571 -0.000342044)
(1.5798e-33 -0.000310375 -0.00109723)
(-7.24148e-33 -9.03992e-05 -0.0015183)
(1.81699e-32 -1.40013e-05 -0.00179964)
(-1.2825e-32 4.55537e-05 -0.00133726)
(0 9.16324e-05 -0.000489676)
(0 0.000126368 2.78474e-05)
(-1.55856e-33 0.00015292 0.000258746)
(8.95324e-40 0.000171092 0.000332943)
(8.01617e-34 0.0001814 0.000337324)
(-1.40512e-33 0.000184549 0.00031584)
(-6.48682e-34 0.000181795 0.000287623)
(1.75277e-33 0.000174534 0.000259993)
(-1.52192e-33 0.000163981 0.000235308)
(-1.91794e-33 0.000151082 0.000214058)
(-4.58336e-34 0.000136546 0.000196111)
(-1.58935e-33 0.000120888 0.000181172)
(-1.40604e-33 0.00010447 0.000168936)
(-1.21666e-33 8.75444e-05 0.000159134)
(-9.80629e-34 7.02814e-05 0.000151544)
(-3.12479e-34 5.27906e-05 0.000145991)
(0 3.51409e-05 0.000142344)
(-4.47046e-34 1.7377e-05 0.000140524)
(-2.96963e-34 -5.07821e-07 0.000140494)
(-2.24409e-34 -1.8464e-05 0.00014226)
(-3.07123e-34 -3.64777e-05 0.000145873)
(0 -5.45308e-05 0.000151436)
(1.12177e-33 -7.25642e-05 0.000159103)
(-1.06808e-33 -9.04819e-05 0.000169079)
(5.97265e-40 -0.00010813 0.000181633)
(1.7156e-33 -0.00012527 0.000197093)
(-4.55055e-34 -0.000141544 0.000215838)
(-5.06865e-34 -0.000156431 0.000238261)
(4.80189e-34 -0.00016919 0.000264616)
(9.68723e-34 -0.00017881 0.000294559)
(-2.11155e-33 -0.000184013 0.000325872)
(2.07527e-33 -0.000183422 0.000351288)
(2.7215e-33 -0.000176119 0.000351491)
(-9.24925e-34 -0.000162451 0.000281917)
(7.26902e-34 -0.00014391 5.46519e-05)
(1.00102e-33 -0.000123865 -0.000461079)
(3.86623e-33 -0.000100413 -0.00130881)
(3.48139e-32 -4.70868e-05 -0.00178256)
(-3.89004e-32 -3.83523e-05 -0.00187021)
(-5.1215e-37 -1.2232e-05 -0.00140627)
(-5.7383e-34 2.09842e-05 -0.000555303)
(-2.10106e-34 4.84405e-05 -3.96929e-05)
(1.0151e-33 7.05262e-05 0.000198136)
(1.42926e-33 8.67493e-05 0.00028728)
(8.59128e-34 9.81158e-05 0.000309291)
(6.5212e-34 0.000105028 0.000304397)
(0 0.000107984 0.000290177)
(1.17726e-33 0.000107573 0.000273698)
(1.11108e-33 0.000104386 0.000257621)
(1.04752e-33 9.89478e-05 0.000242899)
(2.76675e-33 9.1709e-05 0.000229843)
(1.66545e-33 8.30422e-05 0.000218535)
(0 7.32531e-05 0.00020897)
(0 6.25912e-05 0.000201113)
(1.07323e-36 5.12597e-05 0.000194922)
(1.14389e-33 3.94258e-05 0.00019035)
(1.01044e-33 2.72295e-05 0.000187365)
(7.81441e-34 1.4794e-05 0.000185944)
(0 2.21374e-06 0.000186082)
(7.84109e-34 -1.03886e-05 0.000187789)
(0 -2.29056e-05 0.000191093)
(8.14382e-34 -3.52229e-05 0.000196045)
(8.40404e-34 -4.71967e-05 0.000202707)
(6.0573e-34 -5.86541e-05 0.000211156)
(1.40092e-33 -6.93808e-05 0.000221478)
(1.74189e-33 -7.91087e-05 0.000233757)
(8.32837e-34 -8.7501e-05 0.000248049)
(8.64928e-34 -9.41373e-05 0.000264328)
(-8.63173e-34 -9.85028e-05 0.000282339)
(4.10957e-34 -9.99948e-05 0.000301184)
(-1.30182e-33 -9.79824e-05 0.00031822)
(1.36869e-33 -9.19942e-05 0.000326318)
(3.24482e-33 -8.21237e-05 0.000307677)
(1.67098e-33 -6.96331e-05 0.000221579)
(0 -5.72985e-05 -1.43872e-05)
(-3.46725e-34 -5.11545e-05 -0.000530506)
(2.29169e-34 -5.37289e-05 -0.00138581)
(6.13397e-35 -4.61217e-05 -0.00186316)
(-3.91181e-32 -5.29307e-05 -0.00189043)
(9.08357e-33 -3.34762e-05 -0.00143328)
(-6.43434e-34 -2.03708e-06 -0.00058767)
(-5.51163e-35 2.12195e-05 -7.65867e-05)
(1.22804e-33 3.75683e-05 0.000161259)
(4.08231e-33 4.92037e-05 0.000255298)
(1.23441e-33 5.75436e-05 0.00028499)
(1.20652e-33 6.32265e-05 0.000288672)
(7.98348e-34 6.6585e-05 0.000282775)
(8.86241e-34 6.78694e-05 0.00027382)
(1.10007e-33 6.7314e-05 0.000264283)
(1.21546e-34 6.51478e-05 0.000255101)
(1.12747e-34 6.15919e-05 0.000246657)
(1.36853e-34 5.68549e-05 0.000239128)
(7.29657e-40 5.11301e-05 0.00023261)
(6.77695e-34 4.45936e-05 0.000227164)
(9.26804e-34 3.74058e-05 0.00022283)
(1.33441e-33 2.9713e-05 0.00021963)
(1.17903e-33 2.16506e-05 0.000217581)
(1.02196e-33 1.33467e-05 0.000216697)
(-2.7129e-35 4.9167e-06 0.000216988)
(8.97389e-34 -3.51034e-06 0.000218466)
(-3.33019e-34 -1.18107e-05 0.000221142)
(-3.76857e-35 -1.98554e-05 0.000225028)
(3.23988e-34 -2.74999e-05 0.000230131)
(1.69052e-33 -3.45843e-05 0.000236452)
(-4.74853e-40 -4.09293e-05 0.000243981)
(1.10936e-34 -4.63324e-05 0.000252688)
(1.05061e-33 -5.05655e-05 0.000262498)
(0 -5.33761e-05 0.000273252)
(1.12559e-33 -5.44951e-05 0.000284582)
(1.16365e-33 -5.36615e-05 0.000295551)
(-7.16885e-34 -5.06831e-05 0.00030366)
(6.8325e-34 -4.55824e-05 0.000302319)
(8.92843e-34 -3.88855e-05 0.000274949)
(1.04449e-33 -3.20917e-05 0.000182937)
(5.9676e-35 -2.82418e-05 -5.37219e-05)
(-6.21851e-34 -3.27568e-05 -0.000565405)
(-1.32077e-34 -4.85849e-05 -0.00141597)
(-3.61225e-32 -5.54554e-05 -0.00188696)
(0 -6.57125e-05 -0.00189844)
(1.20223e-34 -4.66678e-05 -0.00144715)
(2.75225e-35 -1.34211e-05 -0.000605645)
(-1.75885e-33 9.0472e-06 -9.74106e-05)
(8.0912e-35 2.26832e-05 0.000140048)
(2.3247e-33 3.12915e-05 0.000236078)
(-2.57727e-33 3.70919e-05 0.000269353)
(-3.53404e-34 4.10793e-05 0.000277408)
(-4.28153e-34 4.36551e-05 0.000276101)
(-2.7001e-33 4.49934e-05 0.000271607)
(-5.18215e-34 4.52002e-05 0.000266211)
(0 4.43697e-05 0.000260762)
(0 4.26006e-05 0.000255602)
(1.55839e-33 3.99977e-05 0.000250904)
(-2.4839e-33 3.66689e-05 0.000246778)
(1.99484e-33 3.27227e-05 0.000243301)
(1.63507e-33 2.82668e-05 0.000240532)
(-1.95011e-33 2.34073e-05 0.000238516)
(-5.44818e-40 1.82494e-05 0.000237283)
(-7.96465e-35 1.2897e-05 0.000236858)
(0 7.45016e-06 0.000237259)
(0 2.01576e-06 0.000238493)
(-1.9413e-33 -3.30052e-06 0.000240562)
(0 -8.39041e-06 0.000243461)
(0 -1.31392e-05 0.000247174)
(-4.26088e-34 -1.74271e-05 0.000251674)
(-2.99846e-33 -2.11287e-05 0.00025692)
(-2.5928e-33 -2.41128e-05 0.000262848)
(0 -2.62446e-05 0.000269358)
(0 -2.73906e-05 0.000276278)
(0 -2.74286e-05 0.000283261)
(-4.45038e-34 -2.62705e-05 0.000289448)
(1.90946e-33 -2.39154e-05 0.000292534)
(2.73643e-34 -2.05728e-05 0.000286309)
(1.73334e-34 -1.69154e-05 0.000254851)
(-2.27131e-33 -1.45381e-05 0.00016049)
(0 -1.66489e-05 -7.58355e-05)
(1.23225e-33 -2.85599e-05 -0.000584555)
(0 -5.32794e-05 -0.00143099)
(0 -6.67025e-05 -0.00189607)
(0 -7.80111e-05 -0.00190197)
(-1.29892e-34 -5.76683e-05 -0.00145452)
(-1.54011e-40 -2.10787e-05 -0.000615699)
(-3.33937e-33 2.39136e-06 -0.000109222)
(2.13392e-33 1.51947e-05 0.000127777)
(0 2.22671e-05 0.000224623)
(-2.22701e-33 2.65178e-05 0.00025963)
(0 2.9279e-05 0.000269959)
(2.19648e-33 3.10805e-05 0.000271178)
(-2.17559e-33 3.21163e-05 0.000269268)
(0 3.2463e-05 0.000266389)
(0 3.21662e-05 0.000263309)
(0 3.12702e-05 0.00026032)
(2.08651e-33 2.98256e-05 0.000257562)
(-2.06639e-33 2.78903e-05 0.000255125)
(-5.65386e-37 2.55281e-05 0.000253077)
(2.03349e-33 2.28067e-05 0.00025147)
(-1.86839e-33 1.97971e-05 0.000250344)
(1.03336e-34 1.65726e-05 0.000249728)
(0 1.32083e-05 0.000249649)
(2.00296e-33 9.77907e-06 0.00025012)
(-5.91751e-35 6.36383e-06 0.000251148)
(-2.01676e-33 3.04144e-06 0.000252729)
(0 -1.08493e-07 0.000254855)
(0 -3.00475e-06 0.000257504)
(0 -5.5658e-06 0.000260646)
(-2.07715e-33 -7.71037e-06 0.000264238)
(-3.90929e-33 -9.35883e-06 0.00026822)
(-1.93063e-40 -1.04359e-05 0.000272503)
(-2.87102e-34 -1.08748e-05 0.000276945)
(0 -1.06262e-05 0.000281244)
(-2.34741e-34 -9.67722e-06 0.000284623)
(-1.89855e-34 -8.1007e-06 0.000284914)
(0 -6.17257e-06 0.00027613)
(-8.3927e-35 -4.63084e-06 0.000242686)
(-2.21164e-33 -5.17926e-06 0.000147356)
(6.19532e-37 -1.12943e-05 -8.8498e-05)
(2.5329e-33 -2.87213e-05 -0.000595307)
(-1.99515e-34 -6.05928e-05 -0.00143893)
(-2.98054e-34 -7.84082e-05 -0.00190004)
(-7.89847e-32 -9.0125e-05 -0.00190337)
(1.77463e-32 -6.78271e-05 -0.00145835)
(-3.3299e-35 -2.71114e-05 -0.000621346)
(-3.24069e-33 -1.68453e-06 -0.000116033)
(2.0891e-33 1.12928e-05 0.000120589)
(-2.26387e-33 1.77288e-05 0.000217791)
(1.46824e-34 2.11308e-05 0.000253691)
(-1.96798e-33 2.31276e-05 0.00026525)
(-2.54199e-34 2.4377e-05 0.000267889)
(1.23877e-39 2.51172e-05 0.000267478)
(2.78256e-33 2.54294e-05 0.000266104)
(-1.78917e-33 2.5346e-05 0.000264481)
(-2.11355e-33 2.48894e-05 0.000262864)
(-3.30195e-34 2.40849e-05 0.000261362)
(-3.08456e-34 2.29634e-05 0.000260042)
(-2.07838e-33 2.15619e-05 0.000258954)
(-2.06973e-33 1.9922e-05 0.000258139)
(0 1.80891e-05 0.000257625)
(-2.05741e-33 1.61116e-05 0.000257437)
(0 1.404e-05 0.000257593)
(2.0555e-33 1.19265e-05 0.000258106)
(-2.11674e-33 9.82527e-06 0.00025898)
(6.09704e-35 7.79072e-06 0.000260209)
(2.1542e-33 5.87721e-06 0.000261786)
(0 4.13881e-06 0.000263692)
(-2.08315e-33 2.62827e-06 0.000265903)
(1.48437e-34 1.3962e-06 0.000268382)
(-3.90028e-33 4.89634e-07 0.000271084)
(2.27865e-33 -5.02574e-08 0.000273941)
(0 -1.9133e-07 0.00027684)
(-2.14588e-33 8.24409e-08 0.000279518)
(-1.21171e-34 7.52763e-07 0.000281258)
(-4.33585e-33 1.71813e-06 0.000279976)
(6.59751e-35 2.67097e-06 0.000269808)
(-2.17494e-33 2.81553e-06 0.000235349)
(0 2.97491e-07 0.000139605)
(-1.64918e-33 -8.72795e-06 -9.58367e-05)
(1.37821e-33 -3.06619e-05 -0.00060137)
(-1.98916e-34 -6.88099e-05 -0.00144308)
(7.23995e-32 -9.02292e-05 -0.00190163)
(-7.90181e-32 -0.000102136 -0.00190357)
(1.77418e-32 -7.75763e-05 -0.00146013)
(0 -3.2318e-05 -0.000624465)
(-1.59225e-33 -4.39961e-06 -0.000120003)
(0 9.30487e-06 0.000116308)
(-2.18518e-33 1.56217e-05 0.000213659)
(-7.35541e-35 1.86084e-05 0.000250037)
(-2.14764e-33 2.01633e-05 0.000262286)
(2.27927e-33 2.10618e-05 0.000265738)
(1.60347e-34 2.15884e-05 0.000266205)
(6.38775e-33 2.18381e-05 0.00026573)
(-6.36601e-33 2.18427e-05 0.000264995)
(-2.11451e-33 2.1617e-05 0.000264227)
(0 2.1175e-05 0.000263515)
(4.20149e-33 2.05338e-05 0.000262908)
(-4.18919e-33 1.97148e-05 0.00026244)
(-2.22694e-33 1.8743e-05 0.00026214)
(-2.19716e-34 1.7647e-05 0.000262027)
(-6.24612e-33 1.64575e-05 0.000262119)
(4.16065e-33 1.52076e-05 0.000262429)
(-7.91155e-36 1.39317e-05 0.000262965)
(2.05325e-33 1.26655e-05 0.00026373)
(-1.23294e-34 1.14446e-05 0.00026472)
(6.16683e-33 1.03047e-05 0.000265928)
(-4.18249e-33 9.28047e-06 0.000267341)
(-2.09711e-33 8.405e-06 0.00026894)
(1.56942e-34 7.70922e-06 0.000270699)
(-1.78124e-33 7.22061e-06 0.000272586)
(2.44761e-33 6.9616e-06 0.000274553)
(1.56836e-34 6.94695e-06 0.000276506)
(-2.13262e-33 7.17734e-06 0.000278212)
(1.17717e-34 7.62125e-06 0.000278991)
(-2.14459e-33 8.16326e-06 0.000276808)
(-5.41737e-35 8.47039e-06 0.000265872)
(-2.16761e-33 7.68006e-06 0.000230878)
(-4.17204e-33 3.7567e-06 0.000134967)
(-1.56941e-33 -7.56875e-06 -0.000100128)
(-2.61512e-33 -3.34653e-05 -0.000604733)
(-3.25996e-32 -7.74063e-05 -0.00144505)
(7.27419e-32 -0.000102066 -0.00190193)
(-1.57474e-31 -0.000114107 -0.00190299)
(3.60803e-32 -8.71214e-05 -0.0014607)
(-3.27138e-33 -3.70515e-05 -0.000626097)
(3.15222e-33 -6.34114e-06 -0.000122313)
(4.14969e-33 8.39922e-06 0.000113726)
(4.27101e-33 1.48933e-05 0.000211122)
(3.28225e-35 1.77236e-05 0.000247758)
(4.26659e-33 1.90412e-05 0.000260399)
(8.5211e-33 1.97304e-05 0.000264326)
(4.25353e-33 2.01192e-05 0.000265312)
(8.49113e-33 2.03179e-05 0.000265375)
(2.50122e-37 2.03619e-05 0.000265177)
(4.22907e-33 2.0264e-05 0.000264929)
(4.22078e-33 2.0033e-05 0.000264705)
(8.42559e-33 1.96789e-05 0.000264543)
(-8.41135e-33 1.92141e-05 0.000264465)
(4.19969e-33 1.86537e-05 0.000264491)
(4.2621e-33 1.8015e-05 0.000264633)
(5.01895e-35 1.73178e-05 0.000264902)
(8.37812e-33 1.65831e-05 0.000265308)
(0 1.58327e-05 0.000265856)
(8.37935e-33 1.50894e-05 0.000266548)
(4.19214e-33 1.4376e-05 0.00026738)
(8.39245e-33 1.37152e-05 0.000268348)
(-1.36592e-37 1.31288e-05 0.000269444)
(4.13866e-33 1.26372e-05 0.000270652)
(4.1387e-33 1.2259e-05 0.000271957)
(4.30339e-33 1.20101e-05 0.000273336)
(4.31039e-33 1.19028e-05 0.000274754)
(-4.24024e-33 1.19433e-05 0.000276132)
(4.24818e-33 1.21251e-05 0.000277256)
(4.25538e-33 1.24098e-05 0.000277468)
(4.29238e-33 1.26717e-05 0.000274762)
(4.27712e-33 1.25514e-05 0.000263391)
(0 1.11107e-05 0.000228111)
(-2.03566e-35 6.11245e-06 0.000132152)
(3.22882e-33 -7.1707e-06 -0.000102644)
(-5.31157e-33 -3.67262e-05 -0.000606515)
(-6.60035e-32 -8.61992e-05 -0.0014457)
(-1.45146e-31 -0.00011391 -0.00190143)
(-1.57146e-31 -0.000126094 -0.0019019)
(7.21113e-37 -9.65535e-05 -0.00146052)
(-3.28828e-33 -4.14652e-05 -0.000626854)
(3.13353e-33 -7.84106e-06 -0.000123642)
(4.85202e-38 8.11371e-06 0.000112148)
(4.23971e-33 1.4962e-05 0.00020953)
(4.25059e-33 1.77924e-05 0.000246301)
(4.27192e-33 1.89997e-05 0.000259168)
(4.27926e-33 1.95718e-05 0.000263372)
(4.24134e-33 1.98777e-05 0.000264666)
(4.23682e-33 2.00431e-05 0.000265051)
(8.46437e-33 2.01078e-05 0.000265177)
(4.2273e-33 2.00845e-05 0.000265245)
(4.28279e-33 1.99796e-05 0.00026532)
(4.2772e-33 1.97992e-05 0.000265432)
(-4.15795e-33 1.95508e-05 0.000265595)
(4.21031e-33 1.92437e-05 0.000265824)
(8.41504e-33 1.88885e-05 0.000266124)
(4.23943e-33 1.84972e-05 0.000266502)
(4.20412e-33 1.80829e-05 0.000266967)
(-4.20391e-33 1.76596e-05 0.000267521)
(8.4089e-33 1.72413e-05 0.000268165)
(4.20582e-33 1.68425e-05 0.000268895)
(4.19271e-33 1.64773e-05 0.000269711)
(4.18862e-33 1.6159e-05 0.000270606)
(4.21499e-33 1.59002e-05 0.00027157)
(8.43828e-33 1.57119e-05 0.000272592)
(7.40132e-38 1.56034e-05 0.000273658)
(4.2284e-33 1.55814e-05 0.000274739)
(-4.23307e-33 1.56474e-05 0.000275769)
(4.23752e-33 1.57912e-05 0.000276544)
(4.2415e-33 1.59699e-05 0.000276418)
(8.48934e-33 1.60478e-05 0.000273407)
(4.22426e-33 1.56361e-05 0.000261788)
(-2.01995e-35 1.37137e-05 0.000226358)
(-6.12268e-38 7.83181e-06 0.000130412)
(3.16574e-33 -7.19513e-06 -0.00010412)
(-5.52448e-33 -4.01651e-05 -0.000607383)
(-3.29971e-32 -9.51137e-05 -0.00144553)
(-1.45092e-31 -0.000125817 -0.00190037)
(0 -0.000138042 -0.00190045)
(-3.6366e-32 -0.000105847 -0.00145979)
(-1.14474e-35 -4.567e-05 -0.00062708)
(0 -9.09463e-06 -0.000124413)
(-4.1052e-33 8.18206e-06 0.000111157)
(0 1.54963e-05 0.000208494)
(4.24098e-33 1.8422e-05 0.000245331)
(-5.84118e-36 1.95965e-05 0.000258326)
(0 2.01096e-05 0.000262693)
(0 2.03694e-05 0.00026417)
(4.2308e-33 2.05163e-05 0.000264748)
(4.228e-33 2.05945e-05 0.000265069)
(4.22529e-33 2.06174e-05 0.000265328)
(0 2.05901e-05 0.000265586)
(3.4359e-35 2.05166e-05 0.000265864)
(3.3739e-35 2.04019e-05 0.000266175)
(0 2.02517e-05 0.000266527)
(4.24261e-33 2.00724e-05 0.000266923)
(2.49853e-35 1.98711e-05 0.000267369)
(2.00695e-35 1.96559e-05 0.000267869)
(-4.19662e-33 1.94355e-05 0.000268425)
(4.21163e-33 1.92188e-05 0.000269037)
(0 1.90148e-05 0.000269704)
(0 1.8832e-05 0.000270424)
(-2.34551e-36 1.86785e-05 0.000271194)
(-4.56329e-36 1.85618e-05 0.000272007)
(4.21458e-33 1.84886e-05 0.000272855)
(-4.22241e-33 1.84646e-05 0.000273728)
(2.06473e-36 1.84929e-05 0.000274605)
(0 1.85725e-05 0.000275423)
(5.88492e-36 1.86907e-05 0.000275989)
(4.24407e-33 1.88013e-05 0.000275663)
(4.21628e-33 1.87581e-05 0.000272473)
(4.21026e-33 1.8141e-05 0.000260713)
(-2.97561e-35 1.58406e-05 0.000225212)
(-4.14036e-33 9.18602e-06 0.000129311)
(0 -7.47362e-06 -0.000104989)
(-2.73556e-33 -4.36895e-05 -0.000607695)
(0 -0.000104046 -0.00144483)
(0 -0.000137723 -0.00189893)
(0 -0.000149948 -0.00189875)
(0 -0.000115072 -0.0014587)
(3.2946e-33 -4.97746e-05 -0.000626937)
(3.01271e-35 -1.01789e-05 -0.000124831)
(6.10333e-35 8.47454e-06 0.000110498)
(1.96949e-35 1.63052e-05 0.000207778)
(0 1.93822e-05 0.000244643)
(-4.2355e-33 2.05718e-05 0.000257709)
(-5.34446e-38 2.10625e-05 0.000262173)
(0 2.13005e-05 0.000263759)
(4.22614e-33 2.14392e-05 0.000264452)
(0 2.15277e-05 0.00026489)
(1.53933e-35 2.15805e-05 0.000265265)
(1.79011e-35 2.16025e-05 0.000265633)
(0 2.15966e-05 0.000266012)
(0 2.15659e-05 0.000266412)
(0 2.15138e-05 0.000266839)
(-4.2159e-33 2.14442e-05 0.000267294)
(0 2.13613e-05 0.00026778)
(0 2.12703e-05 0.000268301)
(0 2.11767e-05 0.000268857)
(-4.21451e-33 2.10857e-05 0.000269449)
(1.14952e-35 2.10026e-05 0.000270075)
(1.00405e-35 2.09329e-05 0.000270736)
(9.07731e-36 2.08815e-05 0.000271428)
(1.74984e-35 2.0853e-05 0.000272148)
(-4.20966e-33 2.08512e-05 0.000272888)
(0 2.08796e-05 0.000273644)
(1.39575e-35 2.09393e-05 0.000274397)
(1.68757e-35 2.10278e-05 0.000275088)
(0 2.11311e-05 0.000275527)
(4.25025e-33 2.11991e-05 0.000275082)
(-4.29291e-40 2.1075e-05 0.000271787)
(4.19458e-33 2.03058e-05 0.000259949)
(0 1.76917e-05 0.000224417)
(-3.4556e-35 1.03412e-05 0.000128575)
(-4.40309e-35 -7.88057e-06 -0.000105475)
(0 -4.73085e-05 -0.000607602)
(0 -0.000113001 -0.00144378)
(0 -0.000149592 -0.00189722)
(0 -0.000161819 -0.00189684)
(3.60403e-32 -0.000124251 -0.00145735)
(3.29604e-33 -5.38157e-05 -0.000626551)
(0 -1.11624e-05 -0.000125018)
(-3.34601e-35 8.89793e-06 0.000110053)
(-2.78403e-40 1.72802e-05 0.00020725)
(3.29901e-35 2.0541e-05 0.000244115)
(-4.21395e-33 2.17744e-05 0.000257219)
(-4.22447e-33 2.22647e-05 0.000261739)
(0 2.24951e-05 0.00026339)
(0 2.26325e-05 0.000264152)
(-2.36447e-36 2.27298e-05 0.000264661)
(-4.22593e-33 2.28031e-05 0.000265105)
(-8.53543e-36 2.28576e-05 0.000265539)
(4.21825e-33 2.28954e-05 0.000265979)
(4.2173e-33 2.29185e-05 0.000266433)
(-1.53613e-35 2.29288e-05 0.000266905)
(-4.2159e-33 2.29284e-05 0.000267395)
(0 2.29203e-05 0.000267905)
(0 2.29077e-05 0.000268438)
(-1.56102e-35 2.28938e-05 0.000268994)
(-8.44516e-33 2.28817e-05 0.000269572)
(-1.51436e-35 2.28748e-05 0.000270173)
(-1.51155e-35 2.28762e-05 0.000270797)
(1.5532e-35 2.28892e-05 0.000271441)
(-4.18369e-33 2.29165e-05 0.000272103)
(-4.1991e-33 2.29604e-05 0.000272778)
(0 2.30227e-05 0.000273462)
(4.21912e-33 2.31036e-05 0.000274139)
(2.59301e-35 2.31996e-05 0.000274753)
(4.27813e-33 2.32953e-05 0.000275116)
(6.34833e-35 2.33372e-05 0.000274599)
(7.02144e-35 2.3157e-05 0.000271241)
(-4.18375e-33 2.22679e-05 0.000259361)
(4.21054e-33 1.93778e-05 0.000223826)
(0 1.1371e-05 0.000128068)
(-4.50451e-35 -8.37155e-06 -0.00010572)
(-1.79134e-34 -5.09775e-05 -0.000607263)
(-7.77983e-34 -0.000121952 -0.00144247)
(-3.21349e-34 -0.000161428 -0.00189531)
(5.04627e-34 -0.000173657 -0.00189475)
(3.65971e-32 -0.000133394 -0.00145581)
(0 -5.78166e-05 -0.000626002)
(0 -1.20863e-05 -0.000125064)
(0 9.40176e-06 0.000109734)
(0 1.83571e-05 0.00020683)
(0 2.18203e-05 0.000243677)
(-3.16755e-35 2.31135e-05 0.000256798)
(-4.24611e-33 2.36162e-05 0.000261349)
(-2.02824e-35 2.38477e-05 0.000263039)
(-1.43108e-35 2.39878e-05 0.000263843)
(0 2.40936e-05 0.000264394)
(4.21671e-33 2.41823e-05 0.000264879)
(8.6862e-36 2.42591e-05 0.000265352)
(4.21617e-33 2.43258e-05 0.000265828)
(4.20654e-33 2.43838e-05 0.000266314)
(0 2.44344e-05 0.000266813)
(1.28396e-35 2.4479e-05 0.000267325)
(1.40612e-35 2.4519e-05 0.000267849)
(0 2.45566e-05 0.000268388)
(0 2.45936e-05 0.000268943)
(-4.21383e-33 2.4632e-05 0.000269513)
(0 2.46739e-05 0.000270098)
(0 2.47213e-05 0.000270699)
(4.23378e-33 2.47762e-05 0.000271313)
(-4.21476e-33 2.48399e-05 0.000271938)
(-4.68413e-35 2.4914e-05 0.000272573)
(-2.61414e-35 2.49993e-05 0.000273214)
(4.24492e-33 2.50955e-05 0.000273844)
(3.14226e-35 2.51986e-05 0.000274411)
(4.21705e-33 2.52917e-05 0.000274727)
(0 2.53176e-05 0.000274166)
(0 2.50963e-05 0.000270773)
(-4.21723e-33 2.41064e-05 0.000258873)
(4.24759e-33 2.09629e-05 0.000223354)
(3.96732e-35 1.23245e-05 0.000127695)
(-4.64458e-35 -8.91027e-06 -0.000105818)
(-9.31726e-35 -5.46682e-05 -0.000606756)
(0 -0.000130891 -0.00144096)
(3.18497e-34 -0.000173234 -0.00189321)
(-1.5702e-31 -0.000185464 -0.00189248)
(-3.59987e-32 -0.000142506 -0.0014541)
(-3.29486e-33 -6.17883e-05 -0.000625334)
(3.10133e-33 -1.29727e-05 -0.000125022)
(4.08261e-33 9.95416e-06 0.000109486)
(4.26372e-33 1.9495e-05 0.000206471)
(4.26283e-33 2.31719e-05 0.000243286)
(4.25557e-33 2.45345e-05 0.00025641)
(4.28307e-33 2.5057e-05 0.000260978)
(4.27269e-33 2.52948e-05 0.00026269)
(4.46666e-35 2.544e-05 0.000263519)
(4.24646e-33 2.55539e-05 0.000264094)
(8.43823e-33 2.56546e-05 0.000264604)
(4.21423e-33 2.57473e-05 0.000265101)
(4.20871e-33 2.5834e-05 0.000265599)
(4.21324e-33 2.59157e-05 0.000266104)
(4.21295e-33 2.59934e-05 0.000266619)
(4.16885e-33 2.60678e-05 0.000267142)
(4.18677e-33 2.61398e-05 0.000267674)
(4.18372e-33 2.62104e-05 0.000268217)
(4.15028e-33 2.6281e-05 0.000268771)
(1.96156e-39 2.63528e-05 0.000269335)
(4.21195e-33 2.64271e-05 0.00026991)
(4.17303e-33 2.65051e-05 0.000270495)
(8.42437e-33 2.65879e-05 0.00027109)
(4.21232e-33 2.66765e-05 0.000271693)
(0 2.67715e-05 0.000272303)
(4.21276e-33 2.68735e-05 0.000272916)
(4.21305e-33 2.69816e-05 0.000273518)
(4.21335e-33 2.70913e-05 0.000274055)
(4.21362e-33 2.71847e-05 0.000274343)
(4.21385e-33 2.72008e-05 0.000273757)
(0 2.69476e-05 0.000270344)
(4.21343e-33 2.58689e-05 0.000258437)
(4.20196e-33 2.24863e-05 0.000222947)
(4.08884e-33 1.32326e-05 0.000127398)
(3.2274e-33 -9.47595e-06 -0.000105824)
(-2.64319e-33 -5.83669e-05 -0.00060613)
(-3.29232e-32 -0.000139813 -0.00143928)
(-1.44053e-31 -0.000185009 -0.00189095)
(-4.70269e-31 -0.000197239 -0.00189006)
(-1.07927e-31 -0.000151588 -0.00145225)
(-9.88016e-33 -6.57374e-05 -0.000624576)
(3.09852e-33 -1.38355e-05 -0.000124923)
(1.22372e-32 1.05348e-05 0.000109278)
(1.26023e-32 2.06676e-05 0.000206142)
(1.26393e-32 2.4565e-05 0.000242918)
(1.26413e-32 2.6003e-05 0.000256037)
(1.26011e-32 2.65501e-05 0.000260612)
(1.26047e-32 2.67971e-05 0.000262335)
(8.45284e-33 2.69487e-05 0.000263178)
(1.26791e-32 2.707e-05 0.000263768)
(1.26646e-32 2.71803e-05 0.000264293)
(4.21134e-33 2.72853e-05 0.000264804)
(1.26325e-32 2.73868e-05 0.000265314)
(1.26316e-32 2.74857e-05 0.00026583)
(1.2631e-32 2.75824e-05 0.000266353)
(1.26115e-32 2.76775e-05 0.000266884)
(1.26066e-32 2.77714e-05 0.00026742)
(1.26291e-32 2.78649e-05 0.000267964)
(1.26288e-32 2.79588e-05 0.000268517)
(8.38569e-33 2.80537e-05 0.000269077)
(1.25551e-32 2.81504e-05 0.000269644)
(4.16896e-33 2.82497e-05 0.00027022)
(1.26285e-32 2.83522e-05 0.000270803)
(1.26285e-32 2.84584e-05 0.000271392)
(8.41916e-33 2.85688e-05 0.000271986)
(1.25667e-32 2.86837e-05 0.000272581)
(1.25608e-32 2.88019e-05 0.000273165)
(1.26302e-32 2.89183e-05 0.000273684)
(1.27106e-32 2.90137e-05 0.000273954)
(1.28003e-32 2.90236e-05 0.000273352)
(8.42111e-33 2.87442e-05 0.000269929)
(1.25372e-32 2.75842e-05 0.000258025)
(4.29036e-33 2.39715e-05 0.000222572)
(1.23431e-32 1.41131e-05 0.000127144)
(9.52913e-33 -1.00567e-05 -0.000105771)
(-8.21593e-33 -6.20659e-05 -0.000605414)
(-9.87068e-32 -0.000148714 -0.00143746)
(-4.32831e-31 -0.000196753 -0.00188852)
(-3.13627e-31 -0.000208981 -0.00188748)
(-1.43805e-31 -0.000160642 -0.00145028)
(-6.55464e-33 -6.96687e-05 -0.000623744)
(-8.47753e-35 -1.46833e-05 -0.000124784)
(8.15129e-33 1.11315e-05 0.000109093)
(8.39454e-33 2.18594e-05 0.000205825)
(8.41917e-33 2.59811e-05 0.000242556)
(8.42054e-33 2.74983e-05 0.000255663)
(8.41987e-33 2.80729e-05 0.00026024)
(8.41904e-33 2.83311e-05 0.00026197)
(8.41832e-33 2.84896e-05 0.00026282)
(8.44428e-33 2.8618e-05 0.000263419)
(8.4563e-33 2.87368e-05 0.000263952)
(1.18011e-35 2.8852e-05 0.00026447)
(8.4191e-33 2.89653e-05 0.000264987)
(8.40613e-33 2.90772e-05 0.000265509)
(8.40379e-33 2.9188e-05 0.000266038)
(8.41447e-33 2.92982e-05 0.000266571)
(8.41394e-33 2.9408e-05 0.000267109)
(-6.07822e-38 2.95182e-05 0.000267654)
(8.44296e-33 2.9629e-05 0.000268205)
(8.41321e-33 2.97406e-05 0.000268761)
(8.33971e-33 2.98536e-05 0.000269324)
(-4.1042e-35 2.99685e-05 0.000269893)
(8.45914e-33 3.00858e-05 0.000270468)
(5.18337e-35 3.02055e-05 0.000271047)
(8.41283e-33 3.0328e-05 0.000271631)
(8.41298e-33 3.04534e-05 0.000272215)
(8.3411e-33 3.05804e-05 0.000272787)
(-7.82769e-35 3.07034e-05 0.000273295)
(8.41362e-33 3.08023e-05 0.000273553)
(8.41383e-33 3.08084e-05 0.000272943)
(-2.13611e-37 3.0506e-05 0.000269515)
(8.50861e-33 2.92691e-05 0.00025762)
(-6.75524e-41 2.54322e-05 0.00022221)
(-1.82187e-34 1.49762e-05 0.000126911)
(6.24423e-33 -1.06453e-05 -0.00010568)
(-5.47441e-33 -6.57604e-05 -0.000604625)
(-6.49752e-32 -0.000157593 -0.00143551)
(-1.38999e-36 -0.000208464 -0.00188594)
(4.77359e-34 -0.000220689 -0.00188475)
(-1.36215e-36 -0.000169669 -0.00144818)
(-6.57917e-33 -7.35849e-05 -0.000622847)
(6.18568e-33 -1.55215e-05 -0.000124617)
(-8.14403e-33 1.17369e-05 0.000108919)
(0 2.30613e-05 0.000205511)
(8.47178e-33 2.74092e-05 0.00024219)
(5.23261e-35 2.90072e-05 0.000255282)
(-8.45996e-33 2.96107e-05 0.000259857)
(8.4119e-33 2.98812e-05 0.00026159)
(7.51235e-35 3.00476e-05 0.000262444)
(-8.41076e-33 3.01832e-05 0.000263047)
(8.41017e-33 3.031e-05 0.000263584)
(8.4242e-33 3.0434e-05 0.000264105)
(-8.40902e-33 3.05569e-05 0.000264627)
(0 3.06792e-05 0.000265153)
(8.41629e-33 3.08013e-05 0.000265683)
(-7.59876e-40 3.09234e-05 0.000266218)
(-8.42694e-33 3.10457e-05 0.000266756)
(-1.68388e-32 3.11685e-05 0.0002673)
(1.75305e-39 3.12921e-05 0.000267849)
(3.22172e-35 3.14165e-05 0.000268403)
(-8.40659e-33 3.15421e-05 0.000268962)
(0 3.16692e-05 0.000269526)
(8.40645e-33 3.17982e-05 0.000270095)
(-8.40629e-33 3.1929e-05 0.000270669)
(-8.40643e-33 3.20617e-05 0.000271245)
(-8.40651e-33 3.21962e-05 0.000271822)
(0 3.23313e-05 0.000272386)
(1.87635e-37 3.2461e-05 0.000272886)
(8.6483e-35 3.2564e-05 0.000273138)
(-8.31584e-33 3.25678e-05 0.000272521)
(-8.40732e-33 3.22448e-05 0.000269093)
(9.93504e-35 3.09337e-05 0.00025721)
(-8.2836e-33 2.68762e-05 0.000221848)
(-8.15694e-33 1.58276e-05 0.000126686)
(6.34221e-33 -1.12379e-05 -0.000105564)
(-5.25752e-33 -6.94474e-05 -0.000603775)
(1.5759e-33 -0.000166446 -0.00143345)
(5.76297e-31 -0.000220141 -0.00188322)
(3.13161e-31 -0.000232361 -0.00188188)
(1.4359e-31 -0.000178666 -0.00144595)
(-5.85535e-38 -7.74865e-05 -0.000621892)
(1.23602e-32 -1.6352e-05 -0.000124428)
(-1.62738e-32 1.23475e-05 0.000108748)
(0 2.42682e-05 0.000205192)
(1.55436e-37 2.88429e-05 0.000241816)
(-8.40564e-33 3.05226e-05 0.000254889)
(-8.45699e-33 3.11559e-05 0.00025946)
(-4.71438e-35 3.14392e-05 0.000261193)
(-8.36249e-33 3.16139e-05 0.000262048)
(-8.3354e-33 3.1757e-05 0.000262653)
(1.68316e-32 3.18913e-05 0.000263191)
(4.16771e-38 3.20231e-05 0.000263715)
(9.21423e-36 3.21543e-05 0.000264239)
(8.4015e-33 3.22856e-05 0.000264766)
(1.68082e-32 3.24173e-05 0.000265297)
(-8.40093e-33 3.25494e-05 0.000265831)
(1.85563e-35 3.2682e-05 0.000266369)
(2.3488e-35 3.28151e-05 0.000266912)
(-8.42771e-33 3.29491e-05 0.00026746)
(8.36859e-33 3.30838e-05 0.000268011)
(-1.67633e-32 3.32198e-05 0.000268567)
(8.44102e-33 3.33572e-05 0.000269127)
(1.67991e-32 3.34961e-05 0.000269692)
(-5.44249e-35 3.36363e-05 0.000270261)
(-6.11607e-35 3.37779e-05 0.000270832)
(-1.6799e-32 3.39208e-05 0.000271404)
(-7.65717e-35 3.40635e-05 0.000271962)