/*--------------------------------*- C++ -*----------------------------------*\
| =========                 |                                                 |
| \\      /  F ield         | OpenFOAM: The Open Source CFD Toolbox           |
|  \\    /   O peration     | Version:  2.2.1                                 |
|   \\  /    A nd           | Web:      www.OpenFOAM.org                      |
|    \\/     M anipulation  |                                                 |
\*---------------------------------------------------------------------------*/
FoamFile
{
    version     2.0;
    format      ascii;
    class       surfaceScalarField;
    location    "1";
    object      phi;
}
// * * * * * * * * * * * * * * * * * * * * * * * * * * * * * * * * * * * * * //

dimensions      [0 3 -1 0 0 0 0];

internalField   nonuniform List<scalar> 
79000
(
1.02499e-10
-8.46952e-11
-1.77925e-11
1.39386e-10
-2.77995e-11
-9.0876e-12
1.36011e-10
5.36587e-12
-1.99103e-12
1.19839e-10
1.53348e-11
8.37745e-13
1.02606e-10
1.55561e-11
1.67671e-12
8.74403e-11
1.3318e-11
1.84759e-12
7.46759e-11
1.09207e-11
1.84374e-12
6.39726e-11
8.89601e-12
1.80731e-12
5.49201e-11
7.28079e-12
1.77175e-12
4.71692e-11
6.0082e-12
1.74267e-12
4.0443e-11
5.0064e-12
1.7198e-12
3.45243e-11
4.21668e-12
1.70205e-12
2.92422e-11
3.59365e-12
1.68846e-12
2.44611e-11
3.10282e-12
1.67828e-12
2.0072e-11
2.71822e-12
1.67088e-12
1.59859e-11
2.42036e-12
1.66579e-12
1.21285e-11
2.19461e-12
1.66271e-12
8.43679e-12
2.03035e-12
1.6614e-12
4.8549e-12
1.92021e-12
1.66168e-12
1.3321e-12
1.85936e-12
1.66344e-12
-2.17988e-12
1.84526e-12
1.66671e-12
-5.72907e-12
1.87773e-12
1.67146e-12
-9.3655e-12
1.95871e-12
1.67771e-12
-1.31436e-11
2.09241e-12
1.68566e-12
-1.7125e-11
2.28586e-12
1.69553e-12
-2.13819e-11
2.5494e-12
1.70751e-12
-2.60012e-11
2.8974e-12
1.72197e-12
-3.10903e-11
3.34956e-12
1.73953e-12
-3.67839e-11
3.93262e-12
1.76096e-12
-4.32537e-11
4.68263e-12
1.78712e-12
-5.07209e-11
5.64801e-12
1.81923e-12
-5.9473e-11
6.89327e-12
1.8588e-12
-6.98798e-11
8.50022e-12
1.90661e-12
-8.23894e-11
1.05519e-11
1.95771e-12
-9.74065e-11
1.30377e-11
1.97942e-12
-1.14702e-10
1.54661e-11
1.82916e-12
-1.31301e-10
1.55932e-11
1.00557e-12
-1.3567e-10
6.20634e-12
-1.83668e-12
-1.00536e-10
-2.60931e-11
-9.04119e-12
-8.25185e-11
-1.80174e-11
3.24433e-11
-1.17139e-10
5.13547e-11
-4.67108e-11
5.62823e-11
4.38281e-13
5.60318e-11
1.55853e-11
5.35582e-11
1.80298e-11
5.01464e-11
1.67298e-11
4.63301e-11
1.4737e-11
4.23642e-11
1.28619e-11
3.8385e-11
1.126e-11
3.44692e-11
9.92404e-12
3.06583e-11
8.81733e-12
2.69714e-11
7.90359e-12
2.3413e-11
7.15202e-12
1.99782e-11
6.53765e-12
1.66558e-11
6.04062e-12
1.34309e-11
5.64526e-12
1.02862e-11
5.33932e-12
7.20299e-12
5.11358e-12
4.16169e-12
4.9615e-12
1.14229e-12
4.87876e-12
-1.8757e-12
4.86325e-12
-4.91304e-12
4.91507e-12
-7.99068e-12
5.03634e-12
-1.11297e-11
5.23144e-12
-1.43513e-11
5.50745e-12
-1.76761e-11
5.87423e-12
-2.11236e-11
6.34491e-12
-2.47109e-11
6.93682e-12
-2.84506e-11
7.67238e-12
-3.2348e-11
8.57996e-12
-3.63953e-11
9.69531e-12
-4.05645e-11
1.10625e-11
-4.47936e-11
1.27293e-11
-4.89603e-11
1.47187e-11
-5.28189e-11
1.68962e-11
-5.58218e-11
1.8469e-11
-5.66315e-11
1.6403e-11
-5.20714e-11
1.64619e-12
-3.31902e-11
-4.49744e-11
-1.15709e-10
7.35133e-12
-1.2449e-10
1.46615e-11
-5.4021e-11
2.04301e-11
-5.33031e-12
2.42917e-11
1.17237e-11
2.65178e-11
1.58038e-11
2.7422e-11
1.58256e-11
2.73344e-11
1.48246e-11
2.65251e-11
1.36712e-11
2.52021e-11
1.2583e-11
2.35196e-11
1.16066e-11
2.15898e-11
1.07471e-11
1.94935e-11
9.99989e-12
1.72879e-11
9.3576e-12
1.5013e-11
8.81261e-12
1.26957e-11
8.35783e-12
1.0354e-11
7.98697e-12
7.99879e-12
7.69456e-12
5.63616e-12
7.47621e-12
3.26893e-12
7.32873e-12
8.97681e-13
7.25001e-12
-1.47825e-12
7.23918e-12
-3.85981e-12
7.29662e-12
-6.24739e-12
7.42391e-12
-8.63998e-12
7.62403e-12
-1.1034e-11
7.90143e-12
-1.34215e-11
8.26182e-12
-1.57889e-11
8.71229e-12
-1.81136e-11
9.26158e-12
-2.03611e-11
9.9198e-12
-2.24791e-11
1.0698e-11
-2.43915e-11
1.16077e-11
-2.59886e-11
1.26595e-11
-2.71141e-11
1.38549e-11
-2.75498e-11
1.51544e-11
-2.70011e-11
1.63475e-11
-2.50989e-11
1.65668e-11
-2.14548e-11
1.27589e-11
-1.57911e-11
-4.01756e-12
-8.10233e-12
-5.26631e-11
-1.23811e-10
2.37599e-12
-1.26866e-10
5.71465e-12
-5.73597e-11
9.02221e-12
-8.63784e-12
1.17267e-11
9.01922e-12
1.37343e-11
1.37962e-11
1.50534e-11
1.45065e-11
1.57566e-11
1.41214e-11
1.59389e-11
1.34889e-11
1.56931e-11
1.28288e-11
1.51013e-11
1.21984e-11
1.42326e-11
1.16158e-11
1.31445e-11
1.1088e-11
1.18838e-11
1.06183e-11
1.04886e-11
1.02077e-11
8.9897e-12
9.85676e-12
7.41159e-12
9.56507e-12
5.77417e-12
9.33197e-12
4.09362e-12
9.15677e-12
2.38331e-12
9.03904e-12
6.54765e-13
8.97855e-12
-1.08138e-12
8.97532e-12
-2.81468e-12
9.02993e-12
-4.53415e-12
9.14337e-12
-6.22725e-12
9.31714e-12
-7.87893e-12
9.55312e-12
-9.47053e-12
9.85343e-12
-1.09786e-11
1.02204e-11
-1.23734e-11
1.06564e-11
-1.3617e-11
1.11634e-11
-1.46615e-11
1.17425e-11
-1.54466e-11
1.23928e-11
-1.58972e-11
1.31102e-11
-1.59215e-11
1.38792e-11
-1.54105e-11
1.46434e-11
-1.42462e-11
1.51832e-11
-1.23281e-11
1.46487e-11
-9.6266e-12
1.00575e-11
-6.20369e-12
-7.44049e-12
-2.64811e-12
-5.62187e-11
-1.26459e-10
1.02462e-12
-1.2789e-10
2.68339e-12
-5.90184e-11
4.47505e-12
-1.04295e-11
6.1034e-12
7.39087e-12
7.44792e-12
1.24517e-11
8.46362e-12
1.34908e-11
9.15002e-12
1.3435e-11
9.52787e-12
1.31111e-11
9.62614e-12
1.27305e-11
9.47709e-12
1.23475e-11
9.11318e-12
1.19797e-11
8.56536e-12
1.16359e-11
7.86224e-12
1.13214e-11
7.02971e-12
1.10403e-11
6.09087e-12
1.07956e-11
5.06631e-12
1.05896e-11
3.97448e-12
1.04238e-11
2.83194e-12
1.02993e-11
1.65379e-12
1.02172e-11
4.54229e-13
1.01781e-11
-7.52997e-13
1.01825e-11
-1.95426e-12
1.02312e-11
-3.1355e-12
1.03246e-11
-4.28154e-12
1.04632e-11
-5.37567e-12
1.06473e-11
-6.39918e-12
1.08769e-11
-7.33079e-12
1.1152e-11
-8.14604e-12
1.14717e-11
-8.81688e-12
1.18343e-11
-9.31144e-12
1.2237e-11
-9.59396e-12
1.26753e-11
-9.62527e-12
1.31415e-11
-9.36418e-12
1.36181e-11
-8.77099e-12
1.40502e-11
-7.81318e-12
1.42254e-11
-6.47954e-12
1.3315e-11
-4.80811e-12
8.38605e-12
-2.91898e-12
-9.32963e-12
-1.13623e-12
-5.80015e-11
-1.27595e-10
5.13243e-13
-1.28404e-10
1.40674e-12
-5.99119e-11
2.40702e-12
-1.14298e-11
3.36327e-12
6.43464e-12
4.19832e-12
1.16166e-11
4.87511e-12
1.2814e-11
5.37926e-12
1.29308e-11
5.70927e-12
1.27811e-11
5.87089e-12
1.25689e-11
5.87407e-12
1.23443e-11
5.73156e-12
1.21222e-11
5.45776e-12
1.19097e-11
5.0677e-12
1.17114e-11
4.57648e-12
1.15315e-11
3.99896e-12
1.13731e-11
3.34959e-12
1.1239e-11
2.64221e-12
1.11312e-11
1.89014e-12
1.10514e-11
1.10632e-12
1.1001e-11
3.0352e-13
1.09809e-11
-5.05707e-13
1.09918e-11
-1.30883e-12
1.10343e-11
-2.09295e-12
1.11087e-11
-2.84462e-12
1.12148e-11
-3.54973e-12
1.13524e-11
-4.1934e-12
1.15206e-11
-4.75978e-12
1.17184e-11
-5.23199e-12
1.19439e-11
-5.59233e-12
1.21946e-11
-5.82246e-12
1.24671e-11
-5.90389e-12
1.27568e-11
-5.81888e-12
1.30565e-11
-5.55187e-12
1.33511e-11
-5.09141e-12
1.35898e-11
-4.43353e-12
1.35675e-11
-3.58866e-12
1.24702e-11
-2.59386e-12
7.39124e-12
-1.52993e-12
-1.03936e-11
-5.66379e-13
-5.8965e-11
-1.28162e-10
2.69929e-13
-1.28674e-10
7.7109e-13
-6.04131e-11
1.3487e-12
-1.20073e-11
1.91524e-12
5.86812e-12
2.42615e-12
1.11057e-11
2.85706e-12
1.23831e-11
3.19532e-12
1.25926e-11
3.43523e-12
1.25412e-11
3.57551e-12
1.24286e-11
3.61813e-12
1.23017e-11
3.5674e-12
1.2173e-11
3.42937e-12
1.20477e-11
3.21137e-12
1.19294e-11
2.9217e-12
1.18212e-11
2.56932e-12
1.17255e-11
2.16352e-12
1.16448e-11
1.71373e-12
1.1581e-11
1.22959e-12
1.15356e-11
7.20878e-13
1.15097e-11
1.97416e-13
1.15043e-11
-3.30961e-13
1.15202e-11
-8.54286e-13
1.15576e-11
-1.36237e-12
1.16168e-11
-1.84484e-12
1.16973e-11
-2.29127e-12
1.17988e-11
-2.69103e-12
1.19204e-11
-3.0333e-12
1.20607e-11
-3.30735e-12
1.22179e-11
-3.50269e-12
1.239e-11
-3.60937e-12
1.25738e-11
-3.61842e-12
1.27658e-11
-3.52249e-12
1.29605e-11
-3.31647e-12
1.3145e-11
-2.99865e-12
1.3272e-11
-2.57249e-12
1.31413e-11
-2.04955e-12
1.19473e-11
-1.45557e-12
6.79726e-12
-8.40302e-13
-1.10088e-11
-2.9813e-13
-5.95072e-11
-1.2846e-10
1.38829e-13
-1.28812e-10
4.24368e-13
-6.06986e-11
7.63865e-13
-1.23468e-11
1.10404e-12
5.52795e-12
1.41705e-12
1.07927e-11
1.68754e-12
1.21126e-11
1.90666e-12
1.23735e-11
2.06929e-12
1.23785e-11
2.17294e-12
1.2325e-11
2.2171e-12
1.22576e-11
2.2028e-12
1.21873e-11
2.13239e-12
1.21181e-11
2.0094e-12
1.20524e-11
1.83836e-12
1.19922e-11
1.62442e-12
1.19395e-11
1.37327e-12
1.1896e-11
1.0911e-12
1.18632e-11
7.84553e-13
1.18421e-11
4.60445e-13
1.18338e-11
1.25728e-13
1.18391e-11
-2.12498e-13
1.18584e-11
-5.46959e-13
1.18921e-11
-8.70277e-13
1.19401e-11
-1.1751e-12
1.20021e-11
-1.45415e-12
1.20779e-11
-1.70028e-12
1.21665e-11
-1.90651e-12
1.22669e-11
-2.06622e-12
1.23776e-11
-2.17334e-12
1.24971e-11
-2.22259e-12
1.26231e-11
-2.20971e-12
1.27529e-11
-2.13182e-12
1.28826e-11
-1.98776e-12
1.3001e-11
-1.77859e-12
1.30628e-11
-1.50842e-12
1.28712e-11
-1.18599e-12
1.16248e-11
-8.27922e-13
6.4392e-12
-4.6455e-13
-1.13722e-11
-1.54485e-13
-5.98172e-11
-1.28614e-10
6.21556e-14
-1.28875e-10
2.2305e-13
-6.08595e-11
4.24977e-13
-1.25488e-11
6.31768e-13
5.32116e-12
8.24879e-13
1.05996e-11
9.94416e-13
1.1943e-11
1.13457e-12
1.22333e-11
1.24173e-12
1.22714e-11
1.31372e-12
1.2253e-11
1.34948e-12
1.22218e-11
1.34895e-12
1.21878e-11
1.31298e-12
1.21541e-11
1.24335e-12
1.21221e-11
1.14246e-12
1.20931e-11
1.01324e-12
1.20687e-11
8.59174e-13
1.20501e-11
6.84247e-13
1.20381e-11
4.92807e-13
1.20336e-11
2.89375e-13
1.20373e-11
7.86694e-14
1.20498e-11
-1.34379e-13
1.20715e-11
-3.44762e-13
1.21025e-11
-5.47466e-13
1.21428e-11
-7.37528e-13
1.21922e-11
-9.10065e-13
1.22504e-11
-1.06038e-12
1.23168e-11
-1.18408e-12
1.23906e-11
-1.27717e-12
1.24707e-11
-1.33616e-12
1.25561e-11
-1.35821e-12
1.26451e-11
-1.34133e-12
1.2736e-11
-1.28442e-12
1.28257e-11
-1.18757e-12
1.29041e-11
-1.0523e-12
1.29275e-11
-8.81838e-13
1.27007e-11
-6.82152e-13
1.14252e-11
-4.64001e-13
6.22106e-12
-2.47723e-13
-1.15885e-11
-7.12747e-14
-5.99937e-11
-1.28686e-10
1.39364e-14
-1.28889e-10
1.01486e-13
-6.09471e-11
2.22155e-13
-1.26694e-11
3.49199e-13
5.19412e-12
4.69464e-13
1.04793e-11
5.76325e-13
1.18362e-11
6.66032e-13
1.21436e-11
7.36178e-13
1.22012e-11
7.85144e-13
1.2204e-11
8.1197e-13
1.2195e-11
8.16354e-13
1.21835e-11
7.98617e-13
1.21718e-11
7.59602e-13
1.21611e-11
7.00595e-13
1.21521e-11
6.2331e-13
1.2146e-11
5.29891e-13
1.21435e-11
4.22851e-13
1.21451e-11
3.04945e-13
1.21515e-11
1.79094e-13
1.21631e-11
4.84338e-14
1.21805e-11
-8.37453e-14
1.22036e-11
-2.14116e-13
1.22329e-11
-3.39377e-13
1.22681e-11
-4.5626e-13
1.23091e-11
-5.61589e-13
1.23557e-11
-6.52375e-13
1.24076e-11
-7.25868e-13
1.24641e-11
-7.7963e-13
1.25245e-11
-8.11664e-13
1.25881e-11
-8.20434e-13
1.26539e-11
-8.04943e-13
1.27206e-11
-7.64862e-13
1.27856e-11
-7.00569e-13
1.28398e-11
-6.133e-13
1.28402e-11
-5.05341e-13
1.25928e-11
-3.8067e-13
1.13005e-11
-2.46591e-13
6.08698e-12
-1.17219e-13
-1.17179e-11
-2.07814e-14
-6.00901e-11
-1.28706e-10
-1.64668e-14
-1.28872e-10
2.68109e-14
-6.09903e-11
9.81975e-14
-1.27408e-11
1.7681e-13
5.11551e-12
2.52572e-13
1.04035e-11
3.2073e-13
1.1768e-11
3.78746e-13
1.20856e-11
4.24998e-13
1.2155e-11
4.58396e-13
1.21706e-11
4.78271e-13
1.21752e-11
4.84326e-13
1.21774e-11
4.76616e-13
1.21795e-11
4.55535e-13
1.21822e-11
4.21822e-13
1.21858e-11
3.76512e-13
1.21913e-11
3.20915e-13
1.21991e-11
2.56576e-13
1.22095e-11
1.85236e-13
1.22228e-11
1.08776e-13
1.22396e-11
2.92116e-14
1.226e-11
-5.13265e-14
1.22842e-11
-1.30683e-13
1.23122e-11
-2.06705e-13
1.23441e-11
-2.7727e-13
1.23797e-11
-3.40371e-13
1.24188e-11
-3.94151e-13
1.24614e-11
-4.36884e-13
1.25068e-11
-4.6708e-13
1.25547e-11
-4.83551e-13
1.26046e-11
-4.85465e-13
1.26558e-11
-4.72332e-13
1.27074e-11
-4.44042e-13
1.27574e-11
-4.01008e-13
1.27968e-11
-3.44086e-13
1.27833e-11
-2.748e-13
1.25235e-11
-1.9576e-13
1.12215e-11
-1.12041e-13
6.00326e-12
-3.48662e-14
-1.1795e-11
1.20469e-14
-6.0137e-11
-1.28694e-10
-3.63223e-14
-1.28836e-10
-2.21674e-14
-6.10045e-11
1.94001e-14
-1.27824e-11
6.8926e-14
5.06599e-12
1.17686e-13
1.03548e-11
1.62123e-13
1.17236e-11
2.00477e-13
1.20472e-11
2.31715e-13
1.21238e-11
2.55124e-13
1.21472e-11
2.70237e-13
1.21601e-11
2.76818e-13
1.21709e-11
2.74873e-13
1.21815e-11
2.64614e-13
1.21924e-11
2.46438e-13
1.2204e-11
2.20943e-13
1.22168e-11
1.88939e-13
1.22311e-11
1.51417e-13
1.2247e-11
1.09469e-13
1.22648e-11
6.42719e-14
1.22848e-11
1.70984e-14
1.23072e-11
-3.06882e-14
1.2332e-11
-7.77175e-14
1.23593e-11
-1.22607e-13
1.2389e-11
-1.63991e-13
1.2421e-11
-2.0063e-13
1.24555e-11
-2.31345e-13
1.24921e-11
-2.55072e-13
1.25306e-11
-2.70908e-13
1.25705e-11
-2.78163e-13
1.26118e-11
-2.76336e-13
1.26539e-11
-2.65178e-13
1.26963e-11
-2.44686e-13
1.27369e-11
-2.15161e-13
1.27673e-11
-1.77214e-13
1.27454e-11
-1.3187e-13
1.24782e-11
-8.09793e-14
1.11706e-11
-2.82698e-14
5.95055e-12
1.78826e-14
-1.18412e-11
3.47869e-14
-6.01539e-11
-1.2866e-10
-5.0387e-14
-1.28785e-10
-5.55345e-14
-6.09993e-11
-3.23947e-14
-1.28055e-11
-6.31965e-16
5.03424e-12
3.18044e-14
1.03224e-11
6.18025e-14
1.16936e-11
8.81862e-14
1.20208e-11
1.10269e-13
1.21017e-11
1.27525e-13
1.213e-11
1.39631e-13
1.21479e-11
1.46466e-13
1.2164e-11
1.48053e-13
1.21799e-11
1.44499e-13
1.2196e-11
1.35996e-13
1.22125e-11
1.22901e-13
1.22299e-11
1.05723e-13
1.22482e-11
8.5091e-14
1.22676e-11
6.16791e-14
1.22882e-11
3.62079e-14
1.23103e-11
9.51123e-15
1.23339e-11
-1.7556e-14
1.2359e-11
-4.41469e-14
1.23858e-11
-6.93895e-14
1.24142e-11
-9.24199e-14
1.24441e-11
-1.12436e-13
1.24755e-11
-1.28726e-13
1.25084e-11
-1.40638e-13
1.25425e-11
-1.47593e-13
1.25775e-11
-1.49182e-13
1.26134e-11
-1.4514e-13
1.26499e-11
-1.35309e-13
1.26864e-11
-1.19719e-13
1.27213e-11
-9.85827e-14
1.27461e-11
-7.23005e-14
1.27191e-11
-4.15709e-14
1.24474e-11
-7.69719e-15
1.11367e-11
2.61499e-14
5.91671e-12
5.14677e-14
-1.18665e-11
4.93822e-14
-6.01519e-11
-1.2861e-10
-6.08647e-14
-1.28725e-10
-7.81257e-14
-6.09821e-11
-6.69146e-14
-1.28167e-11
-4.61408e-14
5.01348e-12
-2.38059e-14
1.03e-11
-2.53993e-15
1.16723e-11
1.65855e-14
1.20017e-11
3.30509e-14
1.20852e-11
4.6538e-14
1.21165e-11
5.68852e-14
1.21376e-11
6.40162e-14
1.21569e-11
6.78935e-14
1.2176e-11
6.85458e-14
1.21953e-11
6.61239e-14
1.2215e-11
6.08773e-14
1.22351e-11
5.31147e-14
1.2256e-11
4.31857e-14
1.22776e-11
3.14946e-14
1.22999e-11
1.85098e-14
1.23233e-11
4.76378e-15
1.23476e-11
-9.20509e-15
1.2373e-11
-2.28635e-14
1.23995e-11
-3.56712e-14
1.2427e-11
-4.7099e-14
1.24555e-11
-5.66355e-14
1.24851e-11
-6.38345e-14
1.25156e-11
-6.82689e-14
1.25469e-11
-6.9615e-14
1.25788e-11
-6.76077e-14
1.26114e-11
-6.21146e-14
1.26444e-11
-5.30342e-14
1.26773e-11
-4.03881e-14
1.27086e-11
-2.43222e-14
1.27301e-11
-5.10268e-15
1.26999e-11
1.68059e-14
1.24255e-11
4.03419e-14
1.11132e-11
6.26581e-14
5.8944e-12
7.55481e-14
-1.18794e-11
6.01951e-14
-6.01365e-11
-1.2855e-10
-6.9288e-14
-1.28655e-10
-9.49983e-14
-6.09563e-11
-9.13002e-14
-1.28204e-11
-7.72615e-14
4.99944e-12
-6.08818e-14
1.02836e-11
-4.48543e-14
1.16563e-11
-3.00649e-14
1.19869e-11
-1.6909e-14
1.20721e-11
-5.57897e-15
1.21052e-11
3.84459e-15
1.21282e-11
1.12933e-14
1.21494e-11
1.67006e-14
1.21706e-11
2.01046e-14
1.21919e-11
2.16229e-14
1.22134e-11
2.14138e-14
1.22354e-11
1.96373e-14
1.22578e-11
1.65064e-14
1.22807e-11
1.2286e-14
1.23042e-11
7.25901e-15
1.23283e-11
1.74378e-15
1.23532e-11
-3.90709e-15
1.23787e-11
-9.34435e-15
1.24049e-11
-1.42352e-14
1.24319e-11
-1.82496e-14
1.24595e-11
-2.10907e-14
1.24879e-11
-2.24768e-14
1.2517e-11
-2.21212e-14
1.25465e-11
-1.982e-14
1.25766e-11
-1.54531e-14
1.2607e-11
-8.92105e-15
1.26379e-11
-1.6986e-16
1.26686e-11
1.07967e-14
1.26977e-11
2.38918e-14
1.2717e-11
3.89323e-14
1.26848e-11
5.55517e-14
1.24089e-11
7.28477e-14
1.10959e-11
8.80924e-14
5.87915e-12
9.3171e-14
-1.18845e-11
6.88211e-14
-6.01121e-11
-1.28481e-10
-7.64492e-14
-1.28579e-10
-1.08324e-13
-6.09245e-11
-1.09362e-13
-1.28193e-11
-9.93488e-14
4.98942e-12
-8.65366e-14
1.02708e-11
-7.36049e-14
1.16433e-11
-6.13548e-14
1.19747e-11
-5.00568e-14
1.20608e-11
-3.98486e-14
1.2095e-11
-3.0822e-14
1.21192e-11
-2.30478e-14
1.21417e-11
-1.65336e-14
1.21641e-11
-1.12395e-14
1.21866e-11
-7.10721e-15
1.22093e-11
-4.06361e-15
1.22323e-11
-2.00576e-15
1.22557e-11
-7.68772e-16
1.22795e-11
-1.66758e-16
1.23036e-11
-3.50013e-17
1.23282e-11
-2.15929e-16
1.23533e-11
-4.89185e-16
1.2379e-11
-6.26894e-16
1.24051e-11
-4.18857e-16
1.24317e-11
3.61624e-16
1.24588e-11
1.87046e-15
1.24864e-11
4.29746e-15
1.25146e-11
7.7745e-15
1.25431e-11
1.24731e-14
1.25719e-11
1.84629e-14
1.26011e-11
2.58165e-14
1.26305e-11
3.45792e-14
1.26598e-11
4.47134e-14
1.26876e-11
5.61427e-14
1.27055e-11
6.87473e-14
1.26722e-11
8.2271e-14
1.23954e-11
9.58832e-14
1.10823e-11
1.06858e-13
5.86817e-12
1.06892e-13
-1.18845e-11
7.61191e-14
-6.00814e-11
-1.28405e-10
-8.27766e-14
-1.28496e-10
-1.19273e-13
-6.0888e-11
-1.23464e-13
-1.28151e-11
-1.15936e-13
4.98189e-12
-1.05196e-13
1.02601e-11
-9.39644e-14
1.16321e-11
-8.30454e-14
1.19637e-11
-7.27125e-14
1.20504e-11
-6.3078e-14
1.20853e-11
-5.41771e-14
1.21103e-11
-4.60188e-14
1.21335e-11
-3.86083e-14
1.21567e-11
-3.19501e-14
1.218e-11
-2.60129e-14
1.22034e-11
-2.07498e-14
1.22271e-11
-1.61016e-14
1.22511e-11
-1.19677e-14
1.22753e-11
-8.2293e-15
1.22998e-11
-4.78273e-15
1.23248e-11
-1.50105e-15
1.23501e-11
1.74586e-15
1.23757e-11
5.0571e-15
1.24018e-11
8.58193e-15
1.24281e-11
1.24702e-14
1.24549e-11
1.68529e-14
1.2482e-11
2.18174e-14
1.25096e-11
2.74636e-14
1.25374e-11
3.38595e-14
1.25655e-11
4.1057e-14
1.25939e-11
4.91087e-14
1.26225e-11
5.80426e-14
1.26509e-11
6.78398e-14
1.26778e-11
7.84394e-14
1.26949e-11
8.97583e-14
1.26609e-11
1.01563e-13
1.23836e-11
1.13051e-13
1.10708e-11
1.21462e-13
5.85976e-12
1.18191e-13
-1.18813e-11
8.25239e-14
-6.00457e-11
-1.28323e-10
-8.85479e-14
-1.28407e-10
-1.28889e-13
-6.08476e-11
-1.35249e-13
-1.28088e-11
-1.29141e-13
4.97578e-12
-1.19488e-13
1.02504e-11
-1.09142e-13
1.16217e-11
-9.89148e-14
1.19535e-11
-8.90376e-14
1.20406e-11
-7.95789e-14
1.20759e-11
-7.05479e-14
1.21012e-11
-6.19603e-14
1.21249e-11
-5.38443e-14
1.21486e-11
-4.62005e-14
1.21723e-11
-3.89896e-14
1.21962e-11
-3.21692e-14
1.22202e-11
-2.57161e-14
1.22446e-11
-1.95797e-14
1.22692e-11
-1.36897e-14
1.2294e-11
-7.98864e-15
1.23191e-11
-2.37262e-15
1.23444e-11
3.23998e-15
1.23701e-11
8.90833e-15
1.23961e-11
1.47147e-14
1.24223e-11
2.07448e-14
1.24489e-11
2.70977e-14
1.24757e-11
3.38021e-14
1.25029e-11
4.09425e-14
1.25303e-11
4.85683e-14
1.25579e-11
5.67038e-14
1.25857e-11
6.53731e-14
1.26138e-11
7.45898e-14
1.26417e-11
8.43526e-14
1.2668e-11
9.4632e-14
1.26847e-11
1.05346e-13
1.26502e-11
1.16264e-13
1.23727e-11
1.26586e-13
1.10605e-11
1.33486e-13
5.85286e-12
1.27996e-13
-1.18758e-11
8.84321e-14
-6.00061e-11
-1.28234e-10
-9.4115e-14
-1.28313e-10
-1.37736e-13
-6.0804e-11
-1.45572e-13
-1.28009e-11
-1.40249e-13
4.97047e-12
-1.31163e-13
1.02413e-11
-1.21254e-13
1.16118e-11
-1.11301e-13
1.19436e-11
-1.01498e-13
1.20308e-11
-9.19203e-14
1.20663e-11
-8.26106e-14
1.20919e-11
-7.35998e-14
1.21159e-11
-6.48816e-14
1.21398e-11
-5.64176e-14
1.21638e-11
-4.81947e-14
1.21879e-11
-4.0222e-14
1.22123e-11
-3.24861e-14
1.22369e-11
-2.49362e-14
1.22616e-11
-1.75255e-14
1.22866e-11
-1.0216e-14
1.23118e-11
-2.96734e-15
1.23372e-11
4.28029e-15
1.23629e-11
1.157e-14
1.23888e-11
1.89568e-14
1.2415e-11
2.65168e-14
1.24413e-11
3.42758e-14
1.2468e-11
4.22575e-14
1.24949e-11
5.05085e-14
1.2522e-11
5.90735e-14
1.25493e-11
6.79772e-14
1.25768e-11
7.72279e-14
1.26045e-11
8.68261e-14
1.26321e-11
9.67567e-14
1.26581e-11
1.07e-13
1.26744e-11
1.17504e-13
1.26397e-11
1.28052e-13
1.23621e-11
1.37827e-13
1.10507e-11
1.43891e-13
5.8468e-12
1.36857e-13
-1.18687e-11
9.39886e-14
-5.99633e-11
-1.2814e-10
-9.94798e-14
-1.28214e-10
-1.46023e-13
-6.07574e-11
-1.55009e-13
-1.27919e-11
-1.50174e-13
4.96566e-12
-1.4131e-13
1.02325e-11
-1.31465e-13
1.1602e-11
-1.21458e-13
1.19336e-11
-1.1152e-13
1.20208e-11
-1.01721e-13
1.20565e-11
-9.20801e-14
1.20823e-11
-8.2599e-14
1.21064e-11
-7.32709e-14
1.21305e-11
-6.40945e-14
1.21547e-11
-5.5076e-14
1.21789e-11
-4.62246e-14
1.22034e-11
-3.7518e-14
1.22282e-11
-2.89045e-14
1.2253e-11
-2.03605e-14
1.2278e-11
-1.18765e-14
1.23033e-11
-3.42809e-15
1.23288e-11
5.01558e-15
1.23544e-11
1.35007e-14
1.23803e-11
2.20472e-14
1.24064e-11
3.07281e-14
1.24326e-11
3.95523e-14
1.24592e-11
4.85199e-14
1.2486e-11
5.76574e-14
1.25129e-11
6.69915e-14
1.254e-11
7.65453e-14
1.25673e-11
8.63341e-14
1.25948e-11
9.63473e-14
1.26221e-11
1.06571e-13
1.26479e-11
1.16985e-13
1.2664e-11
1.27539e-13
1.26291e-11
1.38049e-13
1.23516e-11
1.47674e-13
1.10411e-11
1.53332e-13
5.84114e-12
1.45172e-13
-1.18606e-11
9.93555e-14
-5.99174e-11
-1.28041e-10
-1.04726e-13
-1.28109e-10
-1.54058e-13
-6.07081e-11
-1.63996e-13
-1.2782e-11
-1.59347e-13
4.96101e-12
-1.50396e-13
1.02235e-11
-1.40377e-13
1.1592e-11
-1.30173e-13
1.19234e-11
-1.20001e-13
1.20107e-11
-1.09912e-13
1.20464e-11
-9.98853e-14
1.20722e-11
-8.99225e-14
1.20965e-11
-8.00412e-14
1.21206e-11
-7.02599e-14
1.21449e-11
-6.05872e-14
1.21692e-11
-5.10032e-14
1.21938e-11
-4.14991e-14
1.22186e-11
-3.20585e-14
1.22436e-11
-2.26416e-14
1.22686e-11
-1.32446e-14
1.22939e-11
-3.85423e-15
1.23194e-11
5.54446e-15
1.2345e-11
1.4955e-14
1.23709e-11
2.44276e-14
1.23969e-11
3.3998e-14
1.24231e-11
4.36654e-14
1.24495e-11
5.34307e-14
1.24762e-11
6.33065e-14
1.2503e-11
7.33216e-14
1.253e-11
8.34748e-14
1.25571e-11
9.37639e-14
1.25845e-11
1.04201e-13
1.26117e-11
1.1479e-13
1.26373e-11
1.25509e-13
1.26533e-11
1.36303e-13
1.26183e-11
1.46974e-13
1.23409e-11
1.56666e-13
1.10314e-11
1.62159e-13
5.83565e-12
1.53131e-13
-1.18515e-11
1.04592e-13
-5.98689e-11
-1.27936e-10
-1.09914e-13
-1.27999e-10
-1.61902e-13
-6.06561e-11
-1.72558e-13
-1.27713e-11
-1.67906e-13
4.95637e-12
-1.5876e-13
1.02144e-11
-1.48493e-13
1.15817e-11
-1.38002e-13
1.19129e-11
-1.27489e-13
1.20002e-11
-1.16993e-13
1.20359e-11
-1.06532e-13
1.20618e-11
-9.61258e-14
1.20861e-11
-8.57751e-14
1.21103e-11
-7.54686e-14
1.21346e-11
-6.52063e-14
1.2159e-11
-5.49839e-14
1.21836e-11
-4.48042e-14
1.22085e-11
-3.46587e-14
1.22334e-11
-2.4512e-14
1.22585e-11
-1.43561e-14
1.22837e-11
-4.20214e-15
1.23092e-11
5.9763e-15
1.23349e-11
1.61726e-14
1.23607e-11
2.6418e-14
1.23867e-11
3.67354e-14
1.24128e-11
4.71116e-14
1.24391e-11
5.75384e-14
1.24658e-11
6.80508e-14
1.24925e-11
7.86708e-14
1.25193e-11
8.93839e-14
1.25464e-11
1.00178e-13
1.25737e-11
1.11074e-13
1.26008e-11
1.22078e-13
1.26263e-11
1.33173e-13
1.26422e-11
1.44312e-13
1.26072e-11
1.55278e-13
1.233e-11
1.65173e-13
1.10215e-11
1.70644e-13
5.83019e-12
1.60898e-13
-1.18418e-11
1.09777e-13
-5.98178e-11
-1.27826e-10
-1.15036e-13
-1.27884e-10
-1.69486e-13
-6.06017e-11
-1.808e-13
-1.276e-11
-1.76155e-13
4.95172e-12
-1.66775e-13
1.0205e-11
-1.56178e-13
1.15711e-11
-1.45303e-13
1.1902e-11
-1.34376e-13
1.19892e-11
-1.23465e-13
1.2025e-11
-1.12581e-13
1.20509e-11
-1.01718e-13
1.20752e-11
-9.08785e-14
1.20995e-11
-8.00608e-14
1.21238e-11
-6.92448e-14
1.21482e-11
-5.84344e-14
1.21728e-11
-4.76489e-14
1.21977e-11
-3.68583e-14
1.22226e-11
-2.60644e-14
1.22477e-11
-1.52499e-14
1.22729e-11
-4.42336e-15
1.22984e-11
6.41552e-15
1.2324e-11
1.72835e-14
1.23498e-11
2.81881e-14
1.23757e-11
3.91398e-14
1.24018e-11
5.01318e-14
1.24282e-11
6.11641e-14
1.24547e-11
7.22599e-14
1.24814e-11
8.34327e-14
1.25082e-11
9.46726e-14
1.25352e-11
1.05976e-13
1.25624e-11
1.17357e-13
1.25894e-11
1.28822e-13
1.26148e-11
1.40347e-13
1.26307e-11
1.51883e-13
1.25957e-11
1.63221e-13
1.23186e-11
1.73416e-13
1.10113e-11
1.78955e-13
5.82466e-12
1.6857e-13
-1.18314e-11
1.1492e-13
-5.97641e-11
-1.27711e-10
-1.20082e-13
-1.27764e-10
-1.77e-13
-6.05447e-11
-1.88928e-13
-1.27481e-11
-1.84174e-13
4.94696e-12
-1.74466e-13
1.01953e-11
-1.63484e-13
1.15601e-11
-1.52213e-13
1.18907e-11
-1.40884e-13
1.19779e-11
-1.29548e-13
1.20136e-11
-1.18209e-13
1.20396e-11
-1.06865e-13
1.20639e-11
-9.55195e-14
1.20881e-11
-8.41829e-14
1.21124e-11
-7.28492e-14
1.21369e-11
-6.14948e-14
1.21615e-11
-5.01304e-14
1.21863e-11
-3.87593e-14
1.22112e-11
-2.73591e-14
1.22363e-11
-1.59651e-14
1.22615e-11
-4.56233e-15
1.2287e-11
6.87528e-15
1.23126e-11
1.83354e-14
1.23384e-11
2.98167e-14
1.23643e-11
4.13343e-14
1.23903e-11
5.28868e-14
1.24166e-11
6.44775e-14
1.24431e-11
7.61239e-14
1.24697e-11
8.78263e-14
1.24965e-11
9.95768e-14
1.25234e-11
1.11387e-13
1.25506e-11
1.23264e-13
1.25775e-11
1.352e-13
1.26029e-11
1.47183e-13
1.26187e-11
1.59162e-13
1.25837e-11
1.70912e-13
1.23069e-11
1.81451e-13
1.10008e-11
1.8711e-13
5.81901e-12
1.76136e-13
-1.18204e-11
1.20024e-13
-5.9708e-11
-1.27591e-10
-1.252e-13
-1.27639e-10
-1.84563e-13
-6.04854e-11
-1.96985e-13
-1.27356e-11
-1.92036e-13
4.94201e-12
-1.81969e-13
1.01852e-11
-1.70596e-13
1.15487e-11
-1.58917e-13
1.18791e-11
-1.47153e-13
1.19661e-11
-1.3536e-13
1.20018e-11
-1.23539e-13
1.20277e-11
-1.11698e-13
1.2052e-11
-9.98629e-14
1.20763e-11
-8.80277e-14
1.21006e-11
-7.61773e-14
1.2125e-11
-6.43229e-14
1.21496e-11
-5.24366e-14
1.21744e-11
-4.054e-14
1.21993e-11
-2.85941e-14
1.22244e-11
-1.66425e-14
1.22496e-11
-4.68856e-15
1.2275e-11
7.29148e-15
1.23006e-11
1.92876e-14
1.23264e-11
3.13011e-14
1.23522e-11
4.33542e-14
1.23783e-11
5.54503e-14
1.24045e-11
6.75797e-14
1.2431e-11
7.97472e-14
1.24576e-11
9.196e-14
1.24843e-11
1.04225e-13
1.25112e-11
1.16546e-13
1.25382e-11
1.28922e-13
1.25651e-11
1.41345e-13
1.25905e-11
1.53796e-13
1.26063e-11
1.66227e-13
1.25713e-11
1.78406e-13
1.22947e-11
1.89307e-13
1.09899e-11
1.9512e-13
5.81321e-12
1.83598e-13
-1.18089e-11
1.25067e-13
-5.96494e-11
-1.27466e-10
-1.30273e-13
-1.27509e-10
-1.92016e-13
-6.04236e-11
-2.04951e-13
-1.27227e-11
-1.99864e-13
4.93693e-12
-1.89457e-13
1.01748e-11
-1.77664e-13
1.15369e-11
-1.65508e-13
1.18669e-11
-1.53247e-13
1.19539e-11
-1.40963e-13
1.19896e-11
-1.28671e-13
1.20154e-11
-1.16372e-13
1.20397e-11
-1.04059e-13
1.2064e-11
-9.17282e-14
1.20883e-11
-7.93608e-14
1.21127e-11
-6.69804e-14
1.21372e-11
-5.46193e-14
1.21621e-11
-4.22252e-14
1.2187e-11
-2.97941e-14
1.22119e-11
-1.73423e-14
1.22372e-11
-4.86361e-15
1.22626e-11
7.63856e-15
1.22881e-11
2.01473e-14
1.23138e-11
3.26729e-14
1.23397e-11
4.52449e-14
1.23657e-11
5.78645e-14
1.23919e-11
7.05221e-14
1.24183e-11
8.32165e-14
1.24449e-11
9.59525e-14
1.24715e-11
1.08728e-13
1.24984e-11
1.21549e-13
1.25254e-11
1.34418e-13
1.25523e-11
1.47327e-13
1.25776e-11
1.60258e-13
1.25934e-11
1.73152e-13
1.25584e-11
1.85765e-13
1.22821e-11
1.9705e-13
1.09786e-11
2.03048e-13
5.80723e-12
1.91029e-13
-1.17969e-11
1.30117e-13
-5.95885e-11
-1.27336e-10
-1.35272e-13
-1.27373e-10
-1.99447e-13
-6.03595e-11
-2.12962e-13
-1.27092e-11
-2.07709e-13
4.93169e-12
-1.96891e-13
1.0164e-11
-1.84613e-13
1.15247e-11
-1.71969e-13
1.18543e-11
-1.59243e-13
1.19411e-11
-1.46498e-13
1.19768e-11
-1.33728e-13
1.20027e-11
-1.20948e-13
1.2027e-11
-1.08163e-13
1.20512e-11
-9.5346e-14
1.20754e-11
-8.2523e-14
1.20998e-11
-6.96481e-14
1.21244e-11
-5.67815e-14
1.21492e-11
-4.38817e-14
1.2174e-11
-3.09655e-14
1.2199e-11
-1.80322e-14
1.22242e-11
-5.06841e-15
1.22496e-11
7.92864e-15
1.22751e-11
2.09499e-14
1.23008e-11
3.39997e-14
1.23266e-11
4.70925e-14
1.23526e-11
6.02266e-14
1.23788e-11
7.33895e-14
1.24052e-11
8.65922e-14
1.24317e-11
9.98474e-14
1.24583e-11
1.1314e-13
1.24851e-11
1.26459e-13
1.25121e-11
1.39809e-13
1.25389e-11
1.53199e-13
1.25642e-11
1.66616e-13
1.25799e-11
1.79991e-13
1.2545e-11
1.93069e-13
1.22691e-11
2.04755e-13
1.09669e-11
2.10949e-13
5.80104e-12
1.98432e-13
-1.17843e-11
1.3515e-13
-5.95252e-11
-1.27201e-10
-1.40299e-13
-1.27233e-10
-2.06884e-13
-6.02929e-11
-2.20888e-13
-1.26952e-11
-2.15423e-13
4.92623e-12
-2.0419e-13
1.01528e-11
-1.9145e-13
1.15119e-11
-1.78342e-13
1.18412e-11
-1.65152e-13
1.1928e-11
-1.51946e-13
1.19636e-11
-1.38713e-13
1.19894e-11
-1.25455e-13
1.20137e-11
-1.12201e-13
1.20379e-11
-9.89265e-14
1.20622e-11
-8.56269e-14
1.20865e-11
-7.23078e-14
1.21111e-11
-5.89566e-14
1.21358e-11
-4.55718e-14
1.21607e-11
-3.21579e-14
1.21856e-11
-1.8717e-14
1.22108e-11
-5.24865e-15
1.22361e-11
8.24853e-15
1.22616e-11
2.17694e-14
1.22873e-11
3.5331e-14
1.23131e-11
4.89462e-14
1.2339e-11
6.25971e-14
1.23651e-11
7.6262e-14
1.23915e-11
8.99608e-14
1.2418e-11
1.03712e-13
1.24445e-11
1.17504e-13
1.24713e-11
1.31323e-13
1.24983e-11
1.45174e-13
1.25251e-11
1.59057e-13
1.25503e-11
1.72956e-13
1.2566e-11
1.86806e-13
1.25311e-11
2.00353e-13
1.22555e-11
2.12454e-13
1.09548e-11
2.1885e-13
5.79465e-12
2.05838e-13
-1.17713e-11
1.40177e-13
-5.94596e-11
-1.27061e-10
-1.4536e-13
-1.27088e-10
-2.14238e-13
-6.0224e-11
-2.28705e-13
-1.26807e-11
-2.23058e-13
4.92058e-12
-2.1145e-13
1.01411e-11
-1.98279e-13
1.14987e-11
-1.84726e-13
1.18276e-11
-1.71075e-13
1.19143e-11
-1.57382e-13
1.19499e-11
-1.43673e-13
1.19757e-11
-1.29968e-13
1.2e-11
-1.16236e-13
1.20242e-11
-1.02509e-13
1.20484e-11
-8.87209e-14
1.20727e-11
-7.49261e-14
1.20973e-11
-6.11009e-14
1.2122e-11
-4.72538e-14
1.21468e-11
-3.33485e-14
1.21717e-11
-1.94011e-14
1.21968e-11
-5.42567e-15
1.22221e-11
8.57871e-15
1.22476e-11
2.26077e-14
1.22733e-11
3.66721e-14
1.2299e-11
5.07894e-14
1.23249e-11
6.4944e-14
1.2351e-11
7.91203e-14
1.23773e-11
9.33232e-14
1.24038e-11
1.07563e-13
1.24303e-11
1.21836e-13
1.24571e-11
1.36148e-13
1.2484e-11
1.50494e-13
1.25107e-11
1.64862e-13
1.2536e-11
1.79232e-13
1.25517e-11
1.93556e-13
1.25168e-11
2.07568e-13
1.22415e-11
2.2009e-13
1.09423e-11
2.26705e-13
5.78804e-12
2.13209e-13
-1.17578e-11
1.45185e-13
-5.93915e-11
-1.26916e-10
-1.50341e-13
-1.26937e-10
-2.21579e-13
-6.01528e-11
-2.36571e-13
-1.26657e-11
-2.30732e-13
4.91475e-12
-2.18704e-13
1.01291e-11
-2.05067e-13
1.14851e-11
-1.91053e-13
1.18136e-11
-1.76954e-13
1.19002e-11
-1.62829e-13
1.19358e-11
-1.48671e-13
1.19616e-11
-1.34508e-13
1.19858e-11
-1.20309e-13
1.201e-11
-1.06087e-13
1.20342e-11
-9.18406e-14
1.20585e-11
-7.75622e-14
1.2083e-11
-6.32591e-14
1.21077e-11
-4.89127e-14
1.21325e-11
-3.451e-14
1.21573e-11
-2.00726e-14
1.21824e-11
-5.61076e-15
1.22077e-11
8.89032e-15
1.22331e-11
2.34271e-14
1.22587e-11
3.79951e-14
1.22844e-11
5.26035e-14
1.23103e-11
6.72415e-14
1.23364e-11
8.19067e-14
1.23627e-11
9.66112e-14
1.23891e-11
1.1135e-13
1.24156e-11