/*--------------------------------*- C++ -*----------------------------------*\
| =========                 |                                                 |
| \\      /  F ield         | OpenFOAM: The Open Source CFD Toolbox           |
|  \\    /   O peration     | Version:  2.2.1                                 |
|   \\  /    A nd           | Web:      www.OpenFOAM.org                      |
|    \\/     M anipulation  |                                                 |
\*---------------------------------------------------------------------------*/
FoamFile
{
    version     2.0;
    format      ascii;
    class       volVectorField;
    location    "1";
    object      U;
}
// * * * * * * * * * * * * * * * * * * * * * * * * * * * * * * * * * * * * * //

dimensions      [0 1 -1 0 0 0 0];

internalField   nonuniform List<vector> 
40000
(
(-1.38234e-33 9.80958e-05 -0.000283208)
(0 0.000296042 -9.33454e-05)
(1.90291e-33 0.000308124 2.9408e-05)
(1.74755e-33 0.000277011 6.41264e-05)
(0 0.000238219 6.21908e-05)
(1.19178e-34 0.000203271 5.09666e-05)
(0 0.000173661 3.96999e-05)
(8.64386e-34 0.000148843 3.04671e-05)
(6.81771e-34 0.000127927 2.3282e-05)
(0 0.000110102 1.77529e-05)
(2.96679e-35 9.47061e-05 1.34986e-05)
(-2.2205e-35 8.12219e-05 1.02182e-05)
(-3.64735e-34 6.92424e-05 7.6843e-06)
(2.17019e-40 5.84455e-05 5.72743e-06)
(2.54616e-34 4.85737e-05 4.22239e-06)
(2.06136e-34 3.94175e-05 3.0768e-06)
(1.64808e-34 3.08035e-05 2.22237e-06)
(2.72509e-36 2.25853e-05 1.61012e-06)
(0 1.46352e-05 1.20656e-06)
(-3.47916e-35 6.83908e-06 9.89861e-07)
(5.77289e-36 -9.1449e-07 9.48539e-07)
(1.22276e-36 -8.72713e-06 1.08182e-06)
(9.03564e-35 -1.67079e-05 1.39836e-06)
(2.64146e-34 -2.49748e-05 1.91678e-06)
(3.59939e-34 -3.3657e-05 2.66863e-06)
(4.53623e-34 -4.29054e-05 3.70131e-06)
(2.7992e-34 -5.28995e-05 5.08132e-06)
(0 -6.38596e-05 6.90083e-06)
(0 -7.60601e-05 9.28735e-06)
(0 -8.98496e-05 1.24165e-05)
(-5.63966e-34 -0.000105675 1.6529e-05)
(-6.20655e-34 -0.000124119 2.19525e-05)
(-5.85886e-35 -0.000145937 2.9117e-05)
(-8.48121e-34 -0.000172091 3.84982e-05)
(-1.10068e-33 -0.000203687 5.02243e-05)
(1.41022e-34 -0.000241581 6.24481e-05)
(0 -0.000284605 6.62487e-05)
(0 -0.000321034 3.45894e-05)
(-6.13447e-35 -0.000313109 -8.38251e-05)
(-1.72887e-33 -0.000108346 -0.00027165)
(8.55597e-33 2.00762e-05 -0.00072841)
(-3.46653e-33 9.82487e-05 -0.000275611)
(-2.4002e-33 0.000119596 2.66353e-05)
(3.69488e-34 0.000122768 0.000119653)
(-6.19968e-34 0.000119003 0.000127758)
(-8.29562e-34 0.00011249 0.000112817)
(1.44091e-33 0.00010468 9.51413e-05)
(1.12532e-33 9.63112e-05 7.97252e-05)
(5.88999e-34 8.7783e-05 6.7177e-05)
(1.04059e-33 7.93118e-05 5.71259e-05)
(1.02761e-34 7.1016e-05 4.9096e-05)
(3.70647e-34 6.29554e-05 4.26817e-05)
(5.60006e-34 5.51523e-05 3.75626e-05)
(3.46179e-34 4.76042e-05 3.3491e-05)
(2.86314e-34 4.02926e-05 3.02781e-05)
(-1.12244e-34 3.31884e-05 2.77801e-05)
(2.14118e-34 2.6256e-05 2.5888e-05)
(1.47498e-34 1.94561e-05 2.45221e-05)
(0 1.27467e-05 2.36264e-05)
(-1.49407e-34 6.08472e-06 2.31647e-05)
(-7.01399e-35 -5.77077e-07 2.31186e-05)
(4.56124e-35 -7.2813e-06 2.3488e-05)
(-1.95994e-34 -1.40749e-05 2.4289e-05)
(0 -2.10064e-05 2.55556e-05)
(1.58508e-34 -2.81228e-05 2.73442e-05)
(-4.84779e-34 -3.54714e-05 2.97359e-05)
(-4.4835e-34 -4.30979e-05 3.28414e-05)
(6.72707e-34 -5.10443e-05 3.68109e-05)
(1.39175e-33 -5.93452e-05 4.18455e-05)
(5.12689e-34 -6.80218e-05 4.82107e-05)
(0 -7.70726e-05 5.62568e-05)
(7.5305e-34 -8.64592e-05 6.6441e-05)
(4.98391e-34 -9.60836e-05 7.93203e-05)
(1.64304e-33 -0.000105745 9.53883e-05)
(1.1397e-33 -0.000115059 0.000114221)
(9.04037e-34 -0.000123332 0.000131085)
(-7.00276e-40 -0.000129333 0.000125975)
(-2.00275e-33 -0.000129457 3.71766e-05)
(3.24584e-34 -0.000113442 -0.00026039)
(-4.50899e-33 -3.75211e-05 -0.000713536)
(1.0688e-32 -7.3914e-06 -0.000811223)
(-3.226e-33 1.94358e-05 -0.000342056)
(0 3.79089e-05 -2.07335e-05)
(0 4.99017e-05 8.94247e-05)
(-1.48522e-33 5.66936e-05 0.000112237)
(8.45072e-40 5.99751e-05 0.000108579)
(4.04975e-34 6.07163e-05 9.89573e-05)
(-1.12995e-33 5.96342e-05 8.9057e-05)
(-3.26163e-34 5.72512e-05 8.01735e-05)
(8.85455e-34 5.39494e-05 7.24803e-05)
(-9.76719e-34 5.00068e-05 6.59035e-05)
(-1.13892e-33 4.5624e-05 6.03279e-05)
(-3.56223e-34 4.09442e-05 5.56407e-05)
(-9.18174e-34 3.6068e-05 5.17419e-05)
(-8.05713e-34 3.10646e-05 4.8547e-05)
(-6.93252e-34 2.59804e-05 4.59857e-05)
(-5.23099e-34 2.08446e-05 4.40004e-05)
(-1.67571e-34 1.56743e-05 4.25465e-05)
(0 1.04782e-05 4.15916e-05)
(-2.51886e-34 5.25948e-06 4.11146e-05)
(-1.60059e-34 1.57176e-08 4.11057e-05)
(-1.23001e-34 -5.2532e-06 4.15671e-05)
(-1.64547e-34 -1.05494e-05 4.25111e-05)
(0 -1.58732e-05 4.39627e-05)
(6.26015e-34 -2.12194e-05 4.59606e-05)
(-5.59441e-34 -2.65751e-05 4.85567e-05)
(3.6033e-40 -3.19159e-05 5.18173e-05)
(9.86418e-34 -3.7201e-05 5.58267e-05)
(-2.30994e-34 -4.23658e-05 6.06882e-05)
(-2.55274e-34 -4.7312e-05 6.65237e-05)
(4.97251e-34 -5.18944e-05 7.34746e-05)
(8.1746e-34 -5.59017e-05 8.16966e-05)
(-1.04585e-33 -5.90324e-05 9.13146e-05)
(1.58902e-33 -6.08632e-05 0.000102214)
(2.04552e-33 -6.08265e-05 0.000113166)
(-4.94917e-34 -5.82487e-05 0.000118538)
(9.1714e-34 -5.26118e-05 9.77802e-05)
(2.6113e-34 -4.39429e-05 -1.03732e-05)
(9.44781e-34 -3.44416e-05 -0.000331055)
(2.00916e-32 -1.95199e-05 -0.000804631)
(-2.22821e-32 -1.70144e-05 -0.000839526)
(-2.9734e-37 5.29547e-07 -0.00037412)
(5.93116e-34 1.47842e-05 -4.94874e-05)
(-7.26605e-34 2.39002e-05 6.7227e-05)
(-7.72298e-35 2.96689e-05 9.7405e-05)
(8.24603e-34 3.33325e-05 0.000100336)
(1.59751e-34 3.54422e-05 9.60752e-05)
(8.04451e-35 3.63051e-05 9.03638e-05)
(0 3.61514e-05 8.46931e-05)
(6.3637e-34 3.51735e-05 7.94383e-05)
(5.98974e-34 3.35325e-05 7.46973e-05)
(5.64105e-34 3.13619e-05 7.04932e-05)
(1.60268e-33 2.87713e-05 6.68226e-05)
(9.89634e-34 2.58498e-05 6.36713e-05)
(0 2.26695e-05 6.10214e-05)
(0 1.92884e-05 5.88542e-05)
(6.86437e-37 1.57532e-05 5.7151e-05)
(6.54166e-34 1.21018e-05 5.5896e-05)
(5.71819e-34 8.36537e-06 5.50776e-05)
(4.25807e-34 4.57053e-06 5.46883e-05)
(0 7.40039e-07 5.47254e-05)
(4.26646e-34 -3.10198e-06 5.51918e-05)
(0 -6.93205e-06 5.60954e-05)
(4.41234e-34 -1.07246e-05 5.74502e-05)
(4.53962e-34 -1.44485e-05 5.9276e-05)
(3.87418e-34 -1.80655e-05 6.15966e-05)
(9.14008e-34 -2.15277e-05 6.444e-05)
(1.03655e-33 -2.47745e-05 6.78386e-05)
(5.76418e-34 -2.77284e-05 7.18254e-05)
(6.25928e-34 -3.02911e-05 7.64295e-05)
(-6.64034e-34 -3.23384e-05 8.16717e-05)
(-2.40827e-35 -3.3715e-05 8.75503e-05)
(-7.0864e-34 -3.42294e-05 9.39885e-05)
(7.57523e-34 -3.36549e-05 0.000100625)
(2.23321e-33 -3.17567e-05 0.000105974)
(1.38732e-33 -2.83945e-05 0.000104275)
(0 -2.38107e-05 7.53773e-05)
(8.84268e-34 -1.92684e-05 -4.03681e-05)
(2.62515e-34 -1.84189e-05 -0.000365466)
(3.54371e-35 -2.04882e-05 -0.000836028)
(-2.2427e-32 -2.34757e-05 -0.00084947)
(2.65903e-33 -7.08256e-06 -0.000388993)
(6.73089e-34 5.82193e-06 -6.50084e-05)
(-3.58983e-34 1.29003e-05 5.33739e-05)
(7.71377e-34 1.707e-05 8.63556e-05)
(2.85497e-33 1.98091e-05 9.23899e-05)
(7.24434e-34 2.16334e-05 9.11062e-05)
(6.97641e-34 2.27242e-05 8.80758e-05)
(7.76826e-34 2.31741e-05 8.474e-05)
(7.84954e-34 2.30578e-05 8.14763e-05)
(6.19766e-34 2.24462e-05 7.84073e-05)
(-1.44178e-34 2.1407e-05 7.55894e-05)
(-1.18002e-34 2.00037e-05 7.30546e-05)
(-7.59191e-35 1.82939e-05 7.08231e-05)
(4.95381e-40 1.63295e-05 6.89088e-05)
(4.78897e-34 1.4157e-05 6.73202e-05)
(5.15812e-34 1.18177e-05 6.60611e-05)
(8.0086e-34 9.34906e-06 6.51342e-05)
(6.94604e-34 6.78499e-06 6.45417e-05)
(5.87784e-34 4.15714e-06 6.42854e-05)
(-1.50473e-35 1.49531e-06 6.43668e-05)
(4.98593e-34 -1.16984e-06 6.47892e-05)
(-2.25406e-34 -3.80767e-06 6.55568e-05)
(-1.45417e-34 -6.38593e-06 6.66743e-05)
(9.37937e-35 -8.86869e-06 6.81469e-05)
(1.05088e-33 -1.12158e-05 6.9979e-05)
(-3.78533e-40 -1.33819e-05 7.2174e-05)
(-1.12962e-34 -1.53147e-05 7.47327e-05)
(5.85656e-34 -1.69539e-05 7.76504e-05)
(0 -1.82306e-05 8.09137e-05)
(6.33449e-34 -1.90669e-05 8.44964e-05)
(6.60214e-34 -1.93763e-05 8.83491e-05)
(-8.00095e-34 -1.90668e-05 9.23522e-05)
(-3.34193e-35 -1.80519e-05 9.61238e-05)
(7.65098e-35 -1.62832e-05 9.82108e-05)
(2.14675e-34 -1.38566e-05 9.3022e-05)
(4.10523e-34 -1.13299e-05 6.08718e-05)
(9.75617e-34 -1.05069e-05 -5.69392e-05)
(7.98213e-35 -1.53777e-05 -0.000381641)
(-2.06238e-32 -2.49025e-05 -0.000847166)
(0 -2.9319e-05 -0.000854085)
(5.41006e-35 -1.17014e-05 -0.000396811)
(1.1345e-34 1.52727e-06 -7.36079e-05)
(-1.39473e-33 7.76467e-06 4.52782e-05)
(2.70807e-34 1.08967e-05 7.94487e-05)
(1.40712e-33 1.28059e-05 8.69688e-05)
(-1.77464e-33 1.41091e-05 8.72509e-05)
(-4.34852e-34 1.49783e-05 8.57522e-05)
(-4.61635e-34 1.54652e-05 8.38544e-05)
(-1.76271e-33 1.55976e-05 8.19045e-05)
(-4.74372e-34 1.54023e-05 8.00114e-05)
(0 1.4909e-05 7.82277e-05)
(0 1.41493e-05 7.6588e-05)
(7.70811e-34 1.31554e-05 7.51191e-05)
(-1.51478e-33 1.19596e-05 7.38429e-05)
(1.13377e-33 1.05931e-05 7.27762e-05)
(8.62727e-34 9.08639e-06 7.19307e-05)
(-1.1055e-33 7.4687e-06 7.13163e-05)
(-3.31301e-40 5.76846e-06 7.09409e-05)
(-5.99083e-35 4.01365e-06 7.0809e-05)
(0 2.23167e-06 7.09243e-05)
(0 4.50498e-07 7.12902e-05)
(-1.09872e-33 -1.30166e-06 7.19081e-05)
(0 -2.9956e-06 7.27776e-05)
(0 -4.60033e-06 7.38965e-05)
(-3.3585e-34 -6.08314e-06 7.5261e-05)
(-1.93488e-33 -7.40913e-06 7.68636e-05)
(-1.61498e-33 -8.54101e-06 7.86929e-05)
(0 -9.4392e-06 8.07319e-05)
(0 -1.00623e-05 8.29558e-05)
(0 -1.0368e-05 8.53301e-05)
(-4.91383e-34 -1.03146e-05 8.78024e-05)
(8.67538e-34 -9.86511e-06 9.0261e-05)
(4.32132e-34 -8.99759e-06 9.23508e-05)
(3.76677e-34 -7.73834e-06 9.26816e-05)
(-1.42297e-33 -6.27755e-06 8.57896e-05)
(0 -5.3259e-06 5.22397e-05)
(-8.19741e-34 -7.00847e-06 -6.62205e-05)
(0 -1.57925e-05 -0.00039016)
(0 -2.99786e-05 -0.000852301)
(0 -3.49474e-05 -0.000856355)
(-3.39666e-35 -1.52957e-05 -0.000401085)
(1.06442e-40 -9.45142e-07 -7.85035e-05)
(-2.63532e-33 5.15741e-06 4.05059e-05)
(1.20606e-33 7.748e-06 7.52084e-05)
(0 9.11396e-06 8.34672e-05)
(-1.3342e-33 1.00029e-05 8.45826e-05)
(0 1.06151e-05 8.39485e-05)
(1.29929e-33 1.09977e-05 8.29077e-05)
(-1.27968e-33 1.11639e-05 8.17812e-05)
(0 1.11233e-05 8.06595e-05)
(0 1.08877e-05 7.95834e-05)
(0 1.04719e-05 7.85802e-05)
(1.20877e-33 9.89269e-06 7.76724e-05)
(-1.19425e-33 9.1689e-06 7.68795e-05)
(-4.75663e-37 8.32025e-06 7.62178e-05)
(1.17111e-33 7.36706e-06 7.57002e-05)
(-1.03788e-33 6.33004e-06 7.53371e-05)
(8.31129e-35 5.23039e-06 7.51365e-05)
(0 4.08956e-06 7.51036e-05)
(1.14694e-33 2.92902e-06 7.52424e-05)
(-5.09405e-35 1.77081e-06 7.55558e-05)
(-1.15881e-33 6.37355e-07 7.60437e-05)
(0 -4.48559e-07 7.67032e-05)
(0 -1.46359e-06 7.75306e-05)
(0 -2.38403e-06 7.85192e-05)
(-1.20016e-33 -3.18568e-06 7.96588e-05)
(-2.16151e-33 -3.8441e-06 8.09361e-05)
(-1.92014e-40 -4.33512e-06 8.23338e-05)
(-2.98754e-34 -4.63548e-06 8.38288e-05)
(0 -4.72357e-06 8.5392e-05)
(-2.94439e-34 -4.58099e-06 8.69811e-05)
(-2.77595e-34 -4.19551e-06 8.85019e-05)
(0 -3.57056e-06 8.96275e-05)
(-2.16905e-34 -2.76087e-06 8.90122e-05)
(-1.53032e-33 -2.00097e-06 8.12665e-05)
(1.23786e-34 -2.11327e-06 4.70873e-05)
(-1.41275e-33 -5.53524e-06 -7.15471e-05)
(-2.74626e-36 -1.73424e-05 -0.000394842)
(-4.17552e-35 -3.52457e-05 -0.000854837)
(-4.51916e-32 -4.04748e-05 -0.000857415)
(5.32766e-33 -1.84315e-05 -0.000403451)
(-6.87995e-35 -2.56628e-06 -8.13472e-05)
(-2.54515e-33 3.77908e-06 3.76615e-05)
(1.14261e-33 6.13724e-06 7.2618e-05)
(-1.54005e-33 7.18299e-06 8.12644e-05)
(2.68076e-34 7.7946e-06 8.28379e-05)
(-9.93447e-34 8.20927e-06 8.26981e-05)
(-3.28187e-34 8.48105e-06 8.2165e-05)
(8.39691e-40 8.62079e-06 8.15427e-05)
(1.96525e-33 8.63218e-06 8.09085e-05)
(-9.0083e-34 8.51972e-06 8.0293e-05)
(-1.23945e-33 8.29003e-06 7.97152e-05)
(-3.17339e-34 7.95197e-06 7.91911e-05)
(-2.88213e-34 7.51619e-06 7.87357e-05)
(-1.21136e-33 6.9946e-06 7.83621e-05)
(-1.2048e-33 6.4002e-06 7.80808e-05)
(0 5.74703e-06 7.79001e-05)
(-1.19546e-33 5.04987e-06 7.78266e-05)
(0 4.3239e-06 7.7865e-05)
(1.18607e-33 3.58454e-06 7.80189e-05)
(-1.25754e-33 2.84782e-06 7.82902e-05)
(6.00509e-35 2.13001e-06 7.86778e-05)
(1.28749e-33 1.44746e-06 7.91789e-05)
(0 8.16529e-07 7.979e-05)
(-1.21412e-33 2.53398e-07 8.05047e-05)
(1.52112e-34 -2.26087e-07 8.13136e-05)
(-2.13254e-33 -6.06635e-07 8.22055e-05)
(1.42059e-33 -8.73939e-07 8.31665e-05)
(0 -1.01521e-06 8.41792e-05)
(-1.26727e-33 -1.01976e-06 8.5222e-05)
(-1.76015e-34 -8.79944e-07 8.62632e-05)
(-2.58233e-33 -5.93733e-07 8.72229e-05)
(1.47934e-34 -1.7416e-07 8.77938e-05)
(-1.31153e-33 3.11907e-07 8.66568e-05)
(0 5.98732e-07 7.8464e-05)
(-1.34547e-33 -2.43406e-07 4.39861e-05)
(-7.29963e-34 -4.98114e-06 -7.46631e-05)
(-1.5503e-35 -1.93594e-05 -0.000397456)
(4.15174e-32 -4.05747e-05 -0.000856043)
(-4.52079e-32 -4.59404e-05 -0.000857778)
(5.3619e-33 -2.1327e-05 -0.000404732)
(0 -3.74501e-06 -8.3019e-05)
(-1.24549e-33 3.05377e-06 3.59396e-05)
(0 5.36288e-06 7.10206e-05)
(-1.42249e-33 6.2337e-06 7.98794e-05)
(-1.55985e-34 6.67216e-06 8.17136e-05)
(-1.28123e-33 6.95293e-06 8.18621e-05)
(1.46917e-33 7.13988e-06 8.16319e-05)
(2.05866e-34 7.24526e-06 8.13172e-05)
(3.78242e-33 7.2713e-06 8.0987e-05)
(-3.76143e-33 7.2197e-06 8.06643e-05)
(-1.24686e-33 7.09358e-06 8.03618e-05)
(0 6.89762e-06 8.009e-05)
(2.46957e-33 6.63782e-06 7.98598e-05)
(-2.45923e-33 6.32131e-06 7.96811e-05)
(-1.35655e-33 5.95629e-06 7.95608e-05)
(-2.02532e-34 5.55197e-06 7.95048e-05)
(-3.65773e-33 5.11814e-06 7.95183e-05)
(2.43559e-33 4.66505e-06 7.96052e-05)
(3.06879e-36 4.20334e-06 7.9768e-05)
(1.1788e-33 3.74409e-06 8.00079e-05)
(-1.49117e-34 3.29842e-06 8.03235e-05)
(3.56006e-33 2.8774e-06 8.07127e-05)
(-2.45287e-33 2.49202e-06 8.11727e-05)
(-1.23135e-33 2.15297e-06 8.16985e-05)
(1.87527e-34 1.87035e-06 8.22828e-05)
(-8.34464e-34 1.65352e-06 8.29172e-05)
(1.68041e-33 1.51083e-06 8.35918e-05)
(2.19621e-34 1.44926e-06 8.42943e-05)
(-1.26449e-33 1.47406e-06 8.50097e-05)
(2.0888e-34 1.58813e-06 8.57143e-05)
(-1.27881e-33 1.78963e-06 8.63378e-05)
(-1.72505e-34 2.0619e-06 8.6585e-05)
(-1.43613e-33 2.33059e-06 8.51526e-05)
(-2.81101e-33 2.30081e-06 7.67169e-05)
(-1.40454e-33 9.31662e-07 4.20945e-05)
(1.29543e-33 -4.88895e-06 -7.65076e-05)
(-9.73101e-33 -2.15959e-05 -0.000398892)
(4.15859e-32 -4.59217e-05 -0.000856492)
(-9.03635e-32 -5.13646e-05 -0.000857707)
(1.08281e-32 -2.40865e-05 -0.000405368)
(1.19849e-33 -4.67763e-06 -8.39999e-05)
(2.45807e-33 2.69612e-06 3.48848e-05)
(2.50133e-33 5.06416e-06 7.00237e-05)
(2.63128e-33 5.85022e-06 7.9002e-05)
(8.91311e-35 6.18541e-06 8.09879e-05)
(2.54463e-33 6.38077e-06 8.13071e-05)
(5.07306e-33 6.50996e-06 8.12592e-05)
(2.52821e-33 6.58765e-06 8.11324e-05)
(5.0388e-33 6.61623e-06 8.09907e-05)
(3.1059e-37 6.59655e-06 8.08518e-05)
(2.50257e-33 6.53013e-06 8.0724e-05)
(2.49455e-33 6.41941e-06 8.06141e-05)
(4.97416e-33 6.26786e-06 8.05302e-05)
(-4.96133e-33 6.07982e-06 8.04789e-05)
(2.47533e-33 5.86042e-06 8.04643e-05)
(2.53562e-33 5.61549e-06 8.04904e-05)
(4.4165e-35 5.35138e-06 8.05614e-05)
(4.93183e-33 5.07482e-06 8.06799e-05)
(0 4.79291e-06 8.08475e-05)
(4.93272e-33 4.51303e-06 8.10648e-05)
(2.46855e-33 4.24256e-06 8.13309e-05)
(4.94429e-33 3.98875e-06 8.16443e-05)
(-2.00083e-37 3.75879e-06 8.20028e-05)
(2.38137e-33 3.55952e-06 8.24028e-05)
(2.3753e-33 3.39726e-06 8.28392e-05)
(2.62127e-33 3.27774e-06 8.3306e-05)
(2.63528e-33 3.20582e-06 8.37966e-05)
(-2.51474e-33 3.18532e-06 8.43029e-05)
(2.52373e-33 3.21885e-06 8.48144e-05)
(2.53264e-33 3.30724e-06 8.53125e-05)
(2.65292e-33 3.44715e-06 8.57334e-05)
(2.64742e-33 3.62023e-06 8.57892e-05)
(0 3.7457e-06 8.41858e-05)
(6.15416e-35 3.49874e-06 7.56153e-05)
(2.4652e-33 1.72357e-06 4.09265e-05)
(2.5603e-33 -5.04853e-06 -7.75994e-05)
(-1.96107e-32 -2.39426e-05 -0.000399628)
(-8.31308e-32 -5.12677e-05 -0.000856477)
(-9.03157e-32 -5.67694e-05 -0.000857348)
(6.51636e-38 -2.6775e-05 -0.000405615)
(1.18002e-33 -5.46517e-06 -8.45661e-05)
(2.4376e-33 2.55463e-06 3.42307e-05)
(-6.87367e-38 5.04515e-06 6.93902e-05)
(2.54053e-33 5.80143e-06 7.84358e-05)
(2.53717e-33 6.07793e-06 8.05112e-05)
(2.58928e-33 6.22071e-06 8.09329e-05)
(2.59154e-33 6.31275e-06 8.09956e-05)
(2.52254e-33 6.37135e-06 8.0984e-05)
(2.51722e-33 6.3995e-06 8.09586e-05)
(5.02408e-33 6.39781e-06 8.09342e-05)
(2.50677e-33 6.36698e-06 8.0916e-05)
(2.57697e-33 6.30834e-06 8.09089e-05)
(2.56757e-33 6.22402e-06 8.09181e-05)
(-2.43038e-33 6.11666e-06 8.09481e-05)
(2.48998e-33 5.98941e-06 8.10012e-05)
(4.97466e-33 5.84592e-06 8.10802e-05)
(2.51449e-33 5.69028e-06 8.1188e-05)
(2.48425e-33 5.52684e-06 8.13265e-05)
(-2.48399e-33 5.36017e-06 8.14963e-05)
(4.96911e-33 5.19508e-06 8.16981e-05)
(2.48598e-33 5.03633e-06 8.19311e-05)
(2.44785e-33 4.88865e-06 8.21941e-05)
(2.43928e-33 4.75665e-06 8.2486e-05)
(2.49494e-33 4.64458e-06 8.28043e-05)
(4.99836e-33 4.55633e-06 8.31451e-05)
(1.72088e-37 4.4954e-06 8.35045e-05)
(2.5093e-33 4.46471e-06 8.38785e-05)
(-2.51477e-33 4.46637e-06 8.42616e-05)
(2.52031e-33 4.50162e-06 8.46465e-05)
(2.52576e-33 4.57042e-06 8.5018e-05)
(5.12353e-33 4.66887e-06 8.53162e-05)
(2.64234e-33 4.77739e-06 8.52574e-05)
(4.28868e-35 4.80877e-06 8.35536e-05)
(6.94253e-38 4.40754e-06 7.49075e-05)
(2.46149e-33 2.30086e-06 4.01944e-05)
(2.57171e-33 -5.34765e-06 -7.82383e-05)
(-9.81995e-33 -2.63568e-05 -0.000399932)
(-8.31243e-32 -5.66157e-05 -0.000856158)
(0 -6.216e-05 -0.000856791)
(-1.08735e-32 -2.94131e-05 -0.000405611)
(8.80332e-36 -6.15776e-06 -8.48807e-05)
(0 2.54101e-06 3.38186e-05)
(-2.52493e-33 5.192e-06 6.89769e-05)
(0 5.95262e-06 7.80592e-05)
(2.50368e-33 6.19857e-06 8.01879e-05)
(-2.87859e-35 6.31024e-06 8.06716e-05)
(0 6.37958e-06 8.08017e-05)
(0 6.42624e-06 8.08607e-05)
(2.51545e-33 6.45386e-06 8.0907e-05)
(2.5121e-33 6.46308e-06 8.09535e-05)
(2.50901e-33 6.45431e-06 8.10037e-05)
(0 6.4283e-06 8.10609e-05)
(4.45767e-35 6.38629e-06 8.11287e-05)
(4.0549e-35 6.32987e-06 8.12099e-05)
(0 6.26102e-06 8.13058e-05)
(2.525e-33 6.18204e-06 8.1418e-05)
(2.0166e-35 6.09554e-06 8.15489e-05)
(1.13129e-35 6.00425e-06 8.16995e-05)
(-2.49285e-33 5.91107e-06 8.18703e-05)
(2.49526e-33 5.81908e-06 8.20615e-05)
(0 5.73131e-06 8.22727e-05)
(0 5.6508e-06 8.25029e-05)
(-3.09135e-35 5.58045e-06 8.27517e-05)
(-3.65042e-35 5.52293e-06 8.30175e-05)
(2.46386e-33 5.48061e-06 8.32973e-05)
(-2.50737e-33 5.45559e-06 8.35887e-05)
(4.31932e-35 5.4496e-06 8.38893e-05)
(0 5.46384e-06 8.41954e-05)
(-3.92583e-35 5.49891e-06 8.45019e-05)
(2.48523e-33 5.55433e-06 8.47954e-05)
(2.5549e-33 5.62594e-06 8.50187e-05)
(2.55254e-33 5.69291e-06 8.48908e-05)
(1.93436e-35 5.66102e-06 8.31274e-05)
(-2.51363e-33 5.14365e-06 7.44398e-05)
(0 2.75287e-06 3.97254e-05)
(1.2675e-33 -5.71203e-06 -7.86076e-05)
(0 -2.88107e-05 -0.000399963)
(0 -6.19736e-05 -0.000855623)
(0 -6.7533e-05 -0.000856091)
(0 -3.20118e-05 -0.000405436)
(-1.15756e-33 -6.79151e-06 -8.50394e-05)
(5.74837e-36 2.60418e-06 3.35513e-05)
(-1.88065e-36 5.43888e-06 6.86953e-05)
(-5.36703e-36 6.22417e-06 7.77967e-05)
(0 6.45704e-06 7.99569e-05)
(-2.50816e-33 6.55145e-06 8.04781e-05)
(1.48912e-35 6.60776e-06 8.06494e-05)
(0 6.64767e-06 8.07519e-05)
(2.51359e-33 6.67545e-06 8.08425e-05)
(0 6.69192e-06 8.09327e-05)
(2.81864e-35 6.69741e-06 8.10252e-05)
(2.94245e-35 6.69232e-06 8.11224e-05)
(0 6.67735e-06 8.12269e-05)
(0 6.65348e-06 8.134e-05)
(0 6.62191e-06 8.14624e-05)
(-2.50226e-33 6.58412e-06 8.15952e-05)
(0 6.54172e-06 8.17403e-05)
(0 6.49644e-06 8.18983e-05)
(0 6.45014e-06 8.20692e-05)
(-2.50126e-33 6.40474e-06 8.22534e-05)
(-8.65282e-36 6.36212e-06 8.24503e-05)
(-1.38098e-35 6.32418e-06 8.26593e-05)
(-1.79304e-35 6.29283e-06 8.28806e-05)
(-4.18251e-35 6.26969e-06 8.31129e-05)
(-2.52966e-33 6.25616e-06 8.33541e-05)
(0 6.25355e-06 8.36026e-05)
(-2.26611e-35 6.2629e-06 8.38571e-05)
(-2.07554e-35 6.28488e-06 8.41153e-05)
(0 6.31971e-06 8.43731e-05)
(2.5024e-33 6.36675e-06 8.46186e-05)
(-2.36175e-40 6.42163e-06 8.4796e-05)
(2.52908e-33 6.46223e-06 8.46261e-05)
(0 6.38682e-06 8.28277e-05)
(-4.81047e-37 5.77653e-06 7.41189e-05)
(-6.44451e-36 3.12505e-06 3.94179e-05)
(0 -6.11262e-06 -7.8807e-05)
(0 -3.1269e-05 -0.000399818)
(0 -6.73229e-05 -0.000854933)
(0 -7.28889e-05 -0.000855277)
(1.0853e-32 -3.45876e-05 -0.000405145)
(-1.15241e-33 -7.39306e-06 -8.50979e-05)
(0 2.71442e-06 3.3373e-05)
(-6.20571e-36 5.74623e-06 6.84925e-05)
(-1.74111e-40 6.56995e-06 7.76016e-05)
(2.95197e-36 6.80038e-06 7.97802e-05)
(-2.51609e-33 6.88588e-06 8.03242e-05)
(-2.5146e-33 6.93507e-06 8.05209e-05)
(0 6.97157e-06 8.06502e-05)
(0 7.00024e-06 8.07678e-05)
(-1.37977e-35 7.02201e-06 8.08848e-05)
(-2.52618e-33 7.03705e-06 8.10036e-05)
(-1.87e-35 7.04561e-06 8.11256e-05)
(2.50723e-33 7.04819e-06 8.12526e-05)
(2.50633e-33 7.04542e-06 8.13854e-05)
(-1.73943e-35 7.03797e-06 8.15241e-05)
(-2.50487e-33 7.0267e-06 8.16697e-05)
(0 7.01264e-06 8.18235e-05)
(0 6.99688e-06 8.19857e-05)
(-3.92019e-36 6.98061e-06 8.21564e-05)
(-5.00858e-33 6.96504e-06 8.23358e-05)
(3.93007e-36 6.95133e-06 8.25235e-05)
(7.28917e-36 6.94066e-06 8.2719e-05)
(-9.76857e-36 6.93421e-06 8.29226e-05)
(-2.5293e-33 6.93302e-06 8.31337e-05)
(-2.51955e-33 6.93793e-06 8.33505e-05)
(0 6.94973e-06 8.3572e-05)
(2.51016e-33 6.96904e-06 8.37976e-05)
(-7.30177e-36 6.99623e-06 8.40259e-05)
(2.50391e-33 7.03131e-06 8.42534e-05)
(-3.15266e-36 7.07358e-06 8.44692e-05)
(1.94336e-36 7.1185e-06 8.46183e-05)
(-2.51352e-33 7.14247e-06 8.44229e-05)
(2.51737e-33 7.03603e-06 8.26039e-05)
(0 6.34809e-06 7.38858e-05)
(-1.18819e-35 3.45363e-06 3.9209e-05)
(-2.8215e-35 -6.54366e-06 -7.88939e-05)
(-1.39059e-34 -3.37343e-05 -0.000399554)
(-6.13917e-35 -7.26575e-05 -0.000854127)
(4.37491e-35 -7.82296e-05 -0.000854368)
(1.08786e-32 -3.71475e-05 -0.000404771)
(0 -7.97454e-06 -8.50917e-05)
(0 2.85446e-06 3.32489e-05)
(0 6.09161e-06 6.83366e-05)
(0 6.96108e-06 7.74458e-05)
(0 7.19596e-06 7.96345e-05)
(-1.3905e-35 7.27752e-06 8.01926e-05)
(-2.52191e-33 7.32311e-06 8.04049e-05)
(-3.21435e-36 7.3585e-06 8.05503e-05)
(4.60079e-36 7.38869e-06 8.06844e-05)
(0 7.41452e-06 8.0818e-05)
(2.52815e-33 7.43623e-06 8.09529e-05)
(3.65965e-35 7.45405e-06 8.10901e-05)
(2.50739e-33 7.46834e-06 8.12308e-05)
(2.49277e-33 7.47945e-06 8.13755e-05)
(0 7.48774e-06 8.15243e-05)
(1.20232e-35 7.49374e-06 8.16777e-05)
(9.92793e-36 7.49813e-06 8.18368e-05)
(0 7.50155e-06 8.20015e-05)
(0 7.50473e-06 8.21718e-05)
(-2.50559e-33 7.50847e-06 8.23478e-05)
(0 7.51349e-06 8.25294e-05)
(0 7.52054e-06 8.27162e-05)
(2.50187e-33 7.53032e-06 8.29087e-05)
(-2.50706e-33 7.54347e-06 8.31063e-05)
(9.78876e-36 7.56048e-06 8.33075e-05)
(3.59618e-36 7.58187e-06 8.35119e-05)
(2.50764e-33 7.60801e-06 8.37194e-05)
(1.27011e-36 7.63906e-06 8.39291e-05)
(2.51081e-33 7.675e-06 8.41377e-05)
(0 7.71505e-06 8.4335e-05)
(0 7.7543e-06 8.44666e-05)
(-2.51323e-33 7.76757e-06 8.42555e-05)
(2.52534e-33 7.63794e-06 8.24245e-05)
(1.36393e-35 6.8817e-06 7.37049e-05)
(-1.59292e-35 3.75554e-06 3.90596e-05)
(-1.80686e-35 -6.99194e-06 -7.89118e-05)
(0 -3.62007e-05 -0.000399202)
(6.11315e-35 -7.79783e-05 -0.000853225)
(-9.01406e-32 -8.35557e-05 -0.000853375)
(-1.08445e-32 -3.96948e-05 -0.000404335)
(1.14674e-33 -8.54255e-06 -8.50433e-05)
(2.40393e-33 3.01282e-06 3.3157e-05)
(2.50505e-33 6.46032e-06 6.82072e-05)
(2.53637e-33 7.38001e-06 7.73119e-05)
(2.53586e-33 7.62329e-06 7.95059e-05)
(2.53425e-33 7.70437e-06 8.00721e-05)
(2.54986e-33 7.74884e-06 8.02937e-05)
(2.53657e-33 7.78414e-06 8.0449e-05)
(1.12668e-35 7.81578e-06 8.05933e-05)
(2.50292e-33 7.84487e-06 8.07371e-05)
(5.00525e-33 7.87162e-06 8.08819e-05)
(2.50735e-33 7.89612e-06 8.10282e-05)
(2.48646e-33 7.91854e-06 8.11771e-05)
(2.50659e-33 7.93904e-06 8.13292e-05)
(2.50628e-33 7.95783e-06 8.1484e-05)
(2.46466e-33 7.97529e-06 8.1642e-05)
(2.48789e-33 7.99189e-06 8.1804e-05)
(2.49165e-33 8.00803e-06 8.19701e-05)
(2.48634e-33 8.02413e-06 8.21399e-05)
(1.15738e-39 8.04066e-06 8.23137e-05)
(2.50578e-33 8.05803e-06 8.24911e-05)
(2.50754e-33 8.07674e-06 8.26723e-05)
(5.01229e-33 8.09735e-06 8.28576e-05)
(2.50648e-33 8.12025e-06 8.30466e-05)
(0 8.14564e-06 8.32379e-05)
(2.50723e-33 8.17377e-06 8.34315e-05)
(2.5077e-33 8.20492e-06 8.36277e-05)
(2.50824e-33 8.23913e-06 8.38255e-05)
(2.50878e-33 8.27628e-06 8.40223e-05)
(2.50932e-33 8.31556e-06 8.4208e-05)
(0 8.35184e-06 8.43286e-05)
(2.51037e-33 8.35837e-06 8.4108e-05)
(2.51049e-33 8.21046e-06 8.22705e-05)
(2.50471e-33 7.39177e-06 7.35543e-05)
(2.4299e-33 4.04077e-06 3.89459e-05)
(1.26884e-33 -7.44971e-06 -7.88848e-05)
(-9.82289e-33 -3.86649e-05 -0.000398784)
(-8.2808e-32 -8.32855e-05 -0.000852237)
(-2.70215e-31 -8.8867e-05 -0.000852304)
(-3.25152e-32 -4.22311e-05 -0.000403847)
(3.43547e-33 -9.1012e-06 -8.49665e-05)
(2.40162e-33 3.18237e-06 3.3084e-05)
(7.50812e-33 6.84292e-06 6.80924e-05)
(7.52707e-33 7.81562e-06 7.71894e-05)
(7.52705e-33 8.06982e-06 7.93852e-05)
(7.5259e-33 8.15244e-06 7.99561e-05)
(7.49764e-33 8.19708e-06 8.01833e-05)
(7.50263e-33 8.23304e-06 8.03446e-05)
(5.02719e-33 8.26633e-06 8.04951e-05)
(7.52822e-33 8.29818e-06 8.0645e-05)
(7.51048e-33 8.32877e-06 8.07956e-05)
(2.50627e-33 8.3581e-06 8.09475e-05)
(7.53415e-33 8.38628e-06 8.11014e-05)
(7.5173e-33 8.41341e-06 8.12578e-05)
(7.51669e-33 8.43959e-06 8.14162e-05)
(7.49771e-33 8.46503e-06 8.15768e-05)
(7.49921e-33 8.49007e-06 8.17404e-05)
(7.51536e-33 8.51494e-06 8.1907e-05)
(7.51522e-33 8.53991e-06 8.20763e-05)
(5.00384e-33 8.56523e-06 8.22484e-05)
(7.50935e-33 8.59115e-06 8.24232e-05)
(2.50424e-33 8.61801e-06 8.26006e-05)
(7.5156e-33 8.64618e-06 8.27812e-05)
(7.51615e-33 8.67587e-06 8.29645e-05)
(5.01117e-33 8.70717e-06 8.31496e-05)
(7.50915e-33 8.74022e-06 8.33363e-05)
(7.50428e-33 8.77518e-06 8.35252e-05)
(7.51924e-33 8.81207e-06 8.37155e-05)
(7.54746e-33 8.85071e-06 8.39047e-05)
(7.58679e-33 8.89025e-06 8.4083e-05)
(5.01491e-33 8.92534e-06 8.41968e-05)
(7.48581e-33 8.92758e-06 8.39703e-05)
(2.54606e-33 8.76446e-06 8.21297e-05)
(7.54556e-33 7.88696e-06 7.34202e-05)
(7.22437e-33 4.31544e-06 3.88531e-05)
(3.73685e-33 -7.91268e-06 -7.88275e-05)
(-2.94541e-32 -4.11249e-05 -0.000398314)
(-2.48454e-31 -8.85788e-05 -0.000851171)
(-1.80048e-31 -9.41633e-05 -0.000851161)
(-4.33262e-32 -4.47578e-05 -0.000403317)
(2.24578e-33 -9.6537e-06 -8.48693e-05)
(-4.36608e-35 3.35855e-06 3.3022e-05)
(5.0013e-33 7.23374e-06 6.79846e-05)
(5.01401e-33 8.26111e-06 7.70714e-05)
(5.01413e-33 8.52762e-06 7.92672e-05)
(5.01354e-33 8.61288e-06 7.98406e-05)
(5.0129e-33 8.65854e-06 8.00712e-05)
(5.01221e-33 8.69573e-06 8.0236e-05)
(5.01153e-33 8.73086e-06 8.039e-05)
(5.01928e-33 8.76519e-06 8.05434e-05)
(5.00936e-33 8.79887e-06 8.06975e-05)
(-7.86938e-36 8.83193e-06 8.08527e-05)
(4.99626e-33 8.86447e-06 8.10095e-05)
(4.97668e-33 8.89655e-06 8.11684e-05)
(4.99159e-33 8.92816e-06 8.13289e-05)
(5.00849e-33 8.95939e-06 8.14909e-05)
(5.00825e-33 8.99047e-06 8.16553e-05)
(-3.03105e-38 9.02153e-06 8.18219e-05)
(5.0176e-33 9.05278e-06 8.19906e-05)
(5.00783e-33 9.08438e-06 8.21616e-05)
(5.0002e-33 9.11645e-06 8.23345e-05)
(-2.07129e-36 9.14919e-06 8.25094e-05)
(5.00993e-33 9.18286e-06 8.26867e-05)
(3.8296e-36 9.21755e-06 8.28663e-05)
(5.00812e-33 9.25328e-06 8.30472e-05)
(5.0083e-33 9.29016e-06 8.32294e-05)
(4.99055e-33 9.32832e-06 8.34136e-05)
(-2.51685e-35 9.36768e-06 8.3599e-05)
(5.00944e-33 9.40805e-06 8.37833e-05)
(5.00985e-33 9.44852e-06 8.39568e-05)
(-9.60868e-38 9.48349e-06 8.40663e-05)
(5.05368e-33 9.48295e-06 8.38361e-05)
(-3.04049e-41 9.30652e-06 8.19947e-05)
(-8.81814e-35 8.37251e-06 7.32942e-05)
(4.76494e-33 4.5834e-06 3.87722e-05)
(2.48774e-33 -8.37819e-06 -7.87492e-05)
(-1.94707e-32 -4.35796e-05 -0.0003978)
(-2.61559e-37 -9.38575e-05 -0.000850031)
(3.21731e-35 -9.9444e-05 -0.000849947)
(-3.29073e-38 -4.72759e-05 -0.000402747)
(2.28571e-33 -1.02017e-05 -8.4757e-05)
(4.79512e-33 3.53868e-06 3.29656e-05)
(-4.99719e-33 7.62912e-06 6.78791e-05)
(0 8.71199e-06 7.69544e-05)
(5.05e-33 8.99162e-06 7.91487e-05)
(3.981e-35 9.08026e-06 7.97232e-05)
(-5.04555e-33 9.12756e-06 7.99555e-05)
(5.0085e-33 9.16637e-06 8.01222e-05)
(4.24338e-35 9.20339e-06 8.02783e-05)
(-5.00754e-33 9.23998e-06 8.04338e-05)
(5.00713e-33 9.27636e-06 8.05899e-05)
(5.00154e-33 9.31257e-06 8.07467e-05)
(-5.00634e-33 9.34865e-06 8.09051e-05)
(0 9.38457e-06 8.10654e-05)
(5.02174e-33 9.42029e-06 8.12269e-05)
(-4.58091e-40 9.4559e-06 8.13897e-05)
(-5.01956e-33 9.49155e-06 8.15544e-05)
(-1.00223e-32 9.52729e-06 8.17208e-05)
(1.03788e-39 9.56321e-06 8.18889e-05)
(6.28893e-36 9.59945e-06 8.20589e-05)
(-5.00487e-33 9.6361e-06 8.22304e-05)
(0 9.67328e-06 8.24035e-05)
(5.00477e-33 9.71117e-06 8.25786e-05)
(-5.00483e-33 9.7498e-06 8.27556e-05)
(-5.00485e-33 9.7891e-06 8.29337e-05)
(-5.00488e-33 9.82917e-06 8.3113e-05)
(0 9.8701e-06 8.3294e-05)
(6.57652e-38 9.91183e-06 8.34761e-05)
(3.57442e-35 9.95411e-06 8.36571e-05)
(-4.96409e-33 9.99598e-06 8.38276e-05)
(-5.00618e-33 1.00315e-05 8.39341e-05)
(4.66503e-35 1.00291e-05 8.37018e-05)
(-4.95958e-33 9.84046e-06 8.18608e-05)
(-4.9942e-33 8.85147e-06 7.31711e-05)
(4.80691e-33 4.84689e-06 3.86974e-05)
(2.54026e-33 -8.84469e-06 -7.86557e-05)
(3.14979e-34 -4.60281e-05 -0.000397247)
(3.30817e-31 -9.91211e-05 -0.000848821)
(1.79784e-31 -0.000104709 -0.000848664)
(4.32633e-32 -4.97852e-05 -0.000402142)
(1.16434e-37 -1.07462e-05 -8.46328e-05)
(9.58269e-33 3.72093e-06 3.29121e-05)
(-9.98654e-33 8.02666e-06 6.77735e-05)
(0 9.16557e-06 7.68357e-05)
(1.05653e-37 9.45896e-06 7.90276e-05)
(-5.00574e-33 9.55148e-06 7.96022e-05)
(-5.04584e-33 9.60069e-06 7.98352e-05)
(-3.36076e-35 9.64121e-06 8.0003e-05)
(-4.97962e-33 9.68016e-06 8.01602e-05)
(-4.97477e-33 9.71898e-06 8.03167e-05)
(1.00118e-32 9.75787e-06 8.04736e-05)
(-7.52455e-39 9.79682e-06 8.06313e-05)
(-9.16514e-36 9.83584e-06 8.07906e-05)
(5.00262e-33 9.8749e-06 8.09516e-05)
(1.00195e-32 9.91395e-06 8.11135e-05)
(-5.00222e-33 9.95307e-06 8.12765e-05)
(1.36702e-35 9.99235e-06 8.14412e-05)
(1.13233e-35 1.00318e-05 8.16074e-05)
(-5.01027e-33 1.00714e-05 8.17749e-05)
(4.99594e-33 1.01113e-05 8.1944e-05)
(-9.99948e-33 1.01516e-05 8.21145e-05)
(5.00397e-33 1.01923e-05 8.22861e-05)
(1.00026e-32 1.02336e-05 8.24596e-05)
(-5.38724e-36 1.02755e-05 8.26348e-05)
(-9.20152e-36 1.03179e-05 8.2811e-05)
(-1.00024e-32 1.03608e-05 8.29882e-05)