/*--------------------------------*- C++ -*----------------------------------*
| =========                |                                                 |
| \      /  F ield         | OpenFOAM: The Open Source CFD Toolbox           |
|  \    /   O peration     | Version:  2.2.1                                 |
|   \  /    A nd           | Web:      www.OpenFOAM.org                      |
|    \/     M anipulation  |                                                 |
*---------------------------------------------------------------------------*/
FoamFile
{
version 2.0;
format ascii;
class volScalarField;
location "0";
object T;
}

// ************************************************************************* //

dimensions [0 0 0 1 0 0 0];

internalField nonuniform List<scalar>
40000
(
311.812
310.445
308.861
307.338
305.928
304.809
303.97
303.347
302.882
302.533
302.273
302.078
301.933
301.83
301.769
301.749
301.762
301.804
301.856
301.914
301.979
302.053
302.14
302.244
302.388
302.575
302.792
302.994
303.108
303.127
303.121
303.064
302.867
302.508
301.936
300.995
299.307
296.587
293.538
290.411
295.699
304.366
306.199
306.442
306.206
305.856
305.51
305.202
304.937
304.711
304.518
304.352
304.209
304.085
303.977
303.885
303.807
303.74
303.683
303.634
303.594
303.562
303.54
303.527
303.515
303.503
303.491
303.479
303.468
303.456
303.409
303.309
303.143
302.9
302.568
302.093
300.797
297.664
294.047
290.494
288.582
291.655
294.294
295.539
296.208
296.615
296.895
297.112
297.298
297.472
297.645
297.815
297.977
298.134
298.288
298.44
298.591
298.739
298.886
299.032
299.175
299.315
299.452
299.584
299.711
299.83
299.938
300.035
300.116
300.177
300.243
300.32
300.415
300.534
300.687
300.816
299.611
296.678
293.672
290.463
288.301
290.697
292.116
293.132
293.893
294.465
294.895
295.215
295.451
295.623
295.743
295.832
295.912
296.005
296.116
296.243
296.384
296.537
296.702
296.878
297.062
297.255
297.455
297.661
297.872
298.088
298.308
298.532
298.76
298.995
299.24
299.505
299.804
300.153
300.525
300.423
296.951
294.503
292.528
289.828
288.618
291.035
292.756
294.064
295.053
295.783
296.309
296.683
296.945
297.129
297.254
297.336
297.383
297.386
297.359
297.316
297.265
297.218
297.184
297.168
297.178
297.216
297.285
297.389
297.527
297.701
297.912
298.162
298.453
298.789
299.173
299.608
300.097
300.334
299.943
298.152
294.857
293.55
291.967
289.363
288.808
291.488
293.485
295.002
296.124
296.91
297.43
297.76
297.967
298.097
298.182
298.237
298.272
298.274
298.228
298.141
298.025
297.891
297.754
297.628
297.524
297.457
297.435
297.469
297.567
297.738
297.991
298.399
298.837
299.245
299.599
299.828
299.808
299.282
297.953
295.436
294.341
293.216
291.64
289.022
288.915
291.881
294.118
295.787
296.976
297.741
298.164
298.371
298.46
298.497
298.514
298.527
298.539
298.513
298.456
298.371
298.259
298.12
297.962
297.802
297.66
297.569
297.588
297.708
297.917
298.204
298.55
298.922
299.223
299.385
299.35
299.039
298.357
297.22
295.72
294.938
294.214
293.047
291.405
288.746
288.976
292.18
294.602
296.37
297.576
298.263
298.535
298.588
298.559
298.514
298.476
298.449
298.419
298.395
298.365
298.314
298.221
298.089
297.95
297.84
297.791
297.827
297.96
298.167
298.415
298.668
298.88
298.997
298.952
298.701
298.222
297.518
296.661
295.871
295.457
294.965
294.176
293.009
291.296
288.529
289.011
292.385
294.935
296.757
297.95
298.54
298.665
298.606
298.513
298.431
298.372
298.332
298.291
298.264
298.245
298.211
298.147
298.069
298.013
298.007
298.063
298.182
298.344
298.516
298.658
298.73
298.694
298.516
298.184
297.717
297.18
296.685
296.375
296.207
295.868
295.275
294.371
293.09
291.321
288.582
289.029
292.514
295.145
296.988
298.157
298.669
298.693
298.578
298.459
298.355
298.277
298.219
298.2
298.2
298.201
298.191
298.171
298.158
298.177
298.235
298.33
298.442
298.545
298.607
298.596
298.491
298.285
297.992
297.654
297.345
297.148
297.104
297.107
296.903
296.486
295.804
294.793
293.383
291.476
288.764
289.037
292.587
295.261
297.105
298.253
298.717
298.699
298.564
298.422
298.297
298.212
298.187
298.193
298.211
298.231
298.247
298.266
298.298
298.352
298.426
298.504
298.566
298.588
298.549
298.44
298.267
298.059
297.862
297.739
297.737
297.846
297.963
297.882
297.641
297.191
296.455
295.356
293.815
291.739
288.923
289.039
292.62
295.308
297.139
298.26
298.733
298.72
298.577
298.425
298.303
298.24
298.222
298.235
298.265
298.3
298.337
298.38
298.433
298.495
298.556
298.601
298.612
298.574
298.484
298.353
298.211
298.1
298.073
298.16
298.342
298.531
298.592
298.504
298.288
297.86
297.114
295.955
294.298
292.041
289.037
289.037
292.615
295.289
297.106
298.228
298.747
298.764
298.625
298.48
298.369
298.304
298.283
298.298
298.334
298.38
298.431
298.487
298.546
298.604
298.647
298.663
298.638
298.571
298.469
298.359
298.278
298.271
298.366
298.553
298.768
298.906
298.906
298.868
298.742
298.399
297.688
296.505
294.757
292.33
289.115
289.005
292.572
295.245
297.057
298.183
298.755
298.823
298.702
298.571
298.462
298.384
298.355
298.367
298.405
298.457
298.517
298.579
298.64
298.691
298.721
298.717
298.674
298.595
298.498
298.413
298.379
298.427
298.56
298.737
298.878
298.923
298.941
298.98
298.98
298.764
298.125
296.948
295.141
292.575
289.169
288.943
292.517
295.197
297.011
298.137
298.751
298.887
298.785
298.68
298.567
298.477
298.434
298.437
298.472
298.526
298.59
298.656
298.719
298.768
298.791
298.779
298.728
298.647
298.555
298.484
298.468
298.525
298.643
298.766
298.83
298.844
298.872
298.958
299.061
298.97
298.418
297.268
295.433
292.764
289.208
288.873
292.467
295.161
296.98
298.102
298.734
298.943
298.855
298.78
298.677
298.579
298.522
298.511
298.537
298.588
298.653
298.722
298.787
298.838
298.862
298.851
298.802
298.722
298.633
298.564
298.544
298.587
298.675
298.76
298.799
298.809
298.826
298.916
299.071
299.071
298.593
297.479
295.636
292.902
289.238
288.815
292.437
295.145
296.968
298.084
298.712
298.977
298.909
298.849
298.777
298.687
298.618
298.591
298.604
298.648
298.709
298.779
298.847
298.902
298.933
298.93
298.889
298.817
298.732
298.661
298.631
298.654
298.716
298.781
298.818
298.82
298.819
298.897
299.064
299.111
298.685
297.605
295.768
292.998
289.263
288.787
292.432
295.144
296.97
298.086
298.708
298.998
298.966
298.889
298.851
298.788
298.72
298.68
298.679
298.71
298.765
298.833
298.902
298.962
299.0
299.007
298.98
298.921
298.847
298.781
298.745
298.752
298.794
298.844
298.869
298.85
298.828
298.896
299.069
299.124
298.714
297.667
295.843
293.063
289.285
288.79
292.442
295.163
296.997
298.118
298.734
299.026
299.045
298.93
298.895
298.865
298.816
298.775
298.762
298.781
298.827
298.889
298.956
299.018
299.063
299.081
299.067
299.025
298.966
298.91
298.875
298.874
298.9
298.931
298.929
298.877
298.836
298.907
299.093
299.141
298.713
297.665
295.862
293.102
289.305
288.805
292.469
295.205
297.05
298.177
298.791
299.072
299.128
298.986
298.922
298.916
298.895
298.864
298.849
298.86
298.896
298.951
299.014
299.076
299.126
299.152
299.151
299.124
299.081
299.036
299.007
299.001
299.01
299.009
298.966
298.878
298.833
298.93
299.137
299.161
298.697
297.64
295.842
293.094
289.316
288.823
292.509
295.266
297.123
298.256
298.87
299.137
299.183
299.041
298.941
298.944
298.952
298.942
298.933
298.941
298.971
299.019
299.078
299.138
299.189
299.222
299.231
299.216
299.186
299.152
299.126
299.111
299.094
299.047
298.951
298.843
298.824
298.973
299.2
299.179
298.67
297.6
295.802
293.06
289.299
288.844
292.559
295.338
297.206
298.344
298.959
299.219
299.246
299.1
298.958
298.955
298.99
299.004
299.008
299.02
299.048
299.092
299.147
299.204
299.255
299.291
299.305
299.299
299.277
299.248
299.218
299.183
299.123
299.017
298.879
298.784
298.83
299.05
299.277
299.188
298.636
297.554
295.752
293.011
289.26
288.865
292.612
295.412
297.288
298.428
299.047
299.304
299.317
299.16
298.976
298.956
299.01
299.05
299.072
299.092
299.122
299.164
299.216
299.271
299.32
299.356
299.373
299.369
299.348
299.314
299.265
299.189
299.071
298.916
298.777
298.745
298.885
299.161
299.35
299.188
298.602
297.511
295.703
292.959
289.213
288.888
292.663
295.478
297.357
298.497
299.12
299.378
299.38
299.214
299.008
298.957
299.016
299.078
299.119
299.152
299.187
299.23
299.28
299.332
299.379
299.412
299.426
299.418
299.387
299.331
299.242
299.111
298.943
298.779
298.696
298.764
298.992
299.281
299.403
299.179
298.574
297.477
295.662
292.911
289.165
288.913
292.707
295.529
297.404
298.54
299.164
299.434
299.44
299.27
299.049
298.962
299.009
299.087
299.148
299.195
299.238
299.283
299.332
299.38
299.422
299.45
299.455
299.433
299.378
299.284
299.144
298.965
298.784
298.665
298.671
298.829
299.107
299.372
299.434
299.171
298.555
297.453
295.632
292.874
289.125
288.943
292.74
295.555
297.424
298.558
299.19
299.476
299.499
299.333
299.098
298.971
298.995
299.077
299.155
299.217
299.27
299.318
299.366
299.41
299.445
299.463
299.454
299.408
299.319
299.18
298.998
298.804
298.656
298.61
298.693
298.902
299.192
299.431
299.451
299.167
298.546
297.441
295.615
292.849
289.096
288.966
292.755
295.565
297.431
298.565
299.203
299.508
299.555
299.401
299.158
298.991
298.977
299.052
299.142
299.217
299.279
299.332
299.379
299.418
299.444
299.45
299.422
299.349
299.225
299.052
298.854
298.682
298.589
298.604
298.73
298.959
299.246
299.468
299.465
299.168
298.546
297.439
295.608
292.837
289.08
288.979
292.76
295.567
297.432
298.567
299.209
299.529
299.605
299.47
299.226
299.022
298.963
299.017
299.109
299.195
299.266
299.324
299.371
299.405
299.422
299.414
299.366
299.271
299.124
298.939
298.755
298.621
298.575
298.622
298.762
298.994
299.279
299.496
299.478
299.174
298.551
297.444
295.611
292.836
289.074
288.983
292.76
295.567
297.433
298.567
299.212
299.543
299.645
299.537
299.3
299.068
298.961
298.98
299.063
299.154
299.233
299.296
299.344
299.374
299.383
299.363
299.302
299.194
299.042
298.866
298.709
298.611
298.592
298.649
298.787
299.016
299.305
299.522
299.491
299.183
298.56
297.453
295.619
292.842
289.077
288.984
292.759
295.568
297.435
298.57
299.215
299.553
299.676
299.597
299.375
299.126
298.974
298.951
299.013
299.102
299.185
299.252
299.3
299.329
299.333
299.305
299.239
299.13
298.986
298.832
298.703
298.631
298.624
298.681
298.812
299.039
299.335
299.55
299.504
299.192
298.571
297.465
295.631
292.851
289.084
288.985
292.76
295.572
297.44
298.574
299.219
299.561
299.7
299.649
299.447
299.191
299.002
298.935
298.968
299.045
299.126
299.194
299.245
299.273
299.276
299.247
299.183
299.081
298.954
298.824
298.721
298.666
298.664
298.717
298.844
299.073
299.376
299.581
299.516
299.202
298.581
297.477
295.643
292.862
289.094
288.987
292.764
295.578
297.447
298.58
299.225
299.567
299.717
299.693
299.515
299.26
299.043
298.935
298.934
298.991
299.064
299.132
299.183
299.213
299.217
299.192
299.133
299.044
298.937
298.83
298.748
298.706
298.707
298.758
298.885
299.123
299.431
299.613
299.528
299.211
298.592
297.488
295.654
292.872
289.103
288.991
292.771
295.587
297.456
298.589
299.232
299.574
299.729
299.728
299.576
299.33
299.094
298.951
298.914
298.947
299.008
299.071
299.122
299.154
299.161
299.14
299.091
299.016
298.928
298.842
298.778
298.746
298.751
298.804
298.938
299.189
299.495
299.643
299.539
299.219
298.601
297.499
295.664
292.881
289.11
288.997
292.78
295.598
297.467
298.598
299.241
299.581
299.74
299.757
299.63
299.399
299.153
298.98
298.91
298.918
298.964
299.02
299.068
299.1
299.11
299.096
299.056
298.995
298.924
298.857
298.808
298.785
298.795
298.855
299.003
299.269
299.563
299.67
299.549
299.228
298.611
297.509
295.674
292.889
289.117
289.005
292.791
295.611
297.48
298.609
299.249
299.588
299.751
299.782
299.678
299.465
299.217
299.021
298.922
298.905
298.935
298.981
299.026
299.057
299.07
299.06
299.029
298.981
298.926
298.875
298.838
298.824
298.841
298.912
299.081
299.361
299.629
299.692
299.559
299.237
298.62
297.519
295.684
292.897
289.122
289.014
292.803
295.625
297.493
298.62
299.258
299.597
299.761
299.803
299.721
299.529
299.285
299.073
298.949
298.909
298.923
298.959
298.998
299.027
299.04
299.035
299.012
298.975
298.933
298.894
298.869
298.863
298.889
298.978
299.17
299.457
299.685
299.71
299.568
299.246
298.631
297.53
295.694
292.905
289.128
289.024
292.816
295.639
297.506
298.631
299.267
299.605
299.771
299.822
299.76
299.589
299.356
299.135
298.991
298.931
298.928
298.953
298.985
299.011
299.024
299.022
299.004
298.977
298.945
298.918
298.901
298.904
298.944
299.054
299.269
299.55
299.728
299.725
299.578
299.257
298.642
297.542
295.706
292.915
289.135
289.035
292.83
295.654
297.52
298.643
299.277
299.614
299.781
299.838
299.794
299.646
299.429
299.206
299.046
298.968
298.949
298.962
298.986
299.008
299.02
299.019
299.007
298.987
298.964
298.945
298.937
298.95
299.006
299.14
299.373
299.63
299.761
299.74
299.589
299.267
298.654
297.556
295.72
292.926
289.143
289.046
292.845
295.669
297.534
298.654
299.285
299.622
299.79
299.853
299.824
299.699
299.501
299.284
299.113
299.02
298.985
298.985
299.001
299.018
299.028
299.028
299.019
299.004
298.988
298.977
298.977
299.003
299.078
299.236
299.475
299.694
299.789
299.754
299.6
299.278
298.667
297.571
295.735
292.939
289.153
289.058
292.859
295.685
297.547
298.666
299.294
299.63
299.798
299.866
299.85
299.746
299.57
299.366
299.19
299.083
299.034
299.022
299.028
299.04
299.047
299.047
299.041
299.03
299.02
299.015
299.024
299.064
299.16
299.337
299.564
299.745
299.812
299.768
299.612
299.29
298.68
297.586
295.752
292.954
289.165
289.07
292.874
295.7
297.561
298.677
299.302
299.637
299.806
299.877
299.872
299.789
299.635
299.447
299.274
299.156
299.094
299.07
299.067
299.072
299.077
299.076
299.071
299.064
299.058
299.06
299.079
299.134
299.25
299.434
299.638
299.786
299.832
299.781
299.623
299.302
298.694
297.602
295.769
292.97
289.178
289.081
292.889
295.715
297.574
298.688
299.311
299.644
299.813
299.886
299.891
299.825
299.693
299.524
299.359
299.236
299.162
299.128
299.116
299.115
299.116
299.115
299.11
299.106
299.104
299.112
299.142
299.213
299.342
299.52
299.701
299.821
299.85
299.793
299.634
299.314
298.708
297.619
295.787
292.987
289.19
289.093
292.904
295.73
297.587
298.698
299.319
299.65
299.819
299.895
299.906
299.856
299.745
299.595
299.442
299.318
299.237
299.193
299.174
299.167
299.164
299.161
299.157
299.154
299.156
299.171
299.212
299.295
299.428
299.596
299.753
299.849
299.865
299.803
299.644
299.325
298.722
297.635
295.805
293.003
289.202
289.105
292.919
295.745
297.6
298.709
299.327
299.656
299.824
299.902
299.919
299.882
299.79
299.659
299.519
299.4
299.315
299.264
299.237
299.225
299.218
299.214
299.209
299.208
299.214
299.235
299.286
299.376
299.508
299.662
299.796
299.872
299.878
299.813
299.653
299.336
298.735
297.652
295.824
293.02
289.215
289.117
292.934
295.759
297.613
298.719
299.335
299.661
299.829
299.908
299.93
299.903
299.828
299.715
299.59
299.477
299.392
299.336
299.304
299.287
299.277
299.271
299.266
299.266
299.276
299.303
299.36
299.454
299.581
299.719
299.832
299.892
299.889
299.821
299.662
299.345
298.747
297.668
295.842
293.037
289.227
289.129
292.948
295.773
297.624
298.728
299.342
299.667
299.833
299.913
299.939
299.921
299.86
299.764
299.653
299.548
299.465
299.408
299.372
299.351
299.338
299.33
299.326
299.327
299.34
299.372
299.433
299.526
299.645
299.767
299.862
299.908
299.898
299.828
299.669
299.354
298.759
297.682
295.86
293.054
289.239
289.141
292.962
295.786
297.636
298.737
299.348
299.672
299.836
299.916
299.946
299.935
299.887
299.806
299.708
299.613
299.534
299.476
299.438
299.415
299.4
299.39
299.386
299.389
299.404
299.44
299.502
299.592
299.701
299.808
299.887
299.921
299.906
299.834
299.674
299.362
298.769
297.696
295.877
293.071
289.252
289.152
292.975
295.799
297.646
298.745
299.355
299.676
299.84
299.919
299.951
299.947
299.909
299.841
299.756
299.671
299.597
299.541
299.502
299.476
299.46
299.449
299.445
299.45
299.467
299.504
299.566
299.651
299.749
299.842
299.907
299.932
299.912
299.838
299.68
299.369
298.779
297.709
295.892
293.087
289.264
289.163
292.988
295.811
297.656
298.753
299.36
299.68
299.843
299.922
299.956
299.956
299.927
299.871
299.798
299.722
299.654
299.6
299.562
299.535
299.518
299.507
299.503
299.509
299.528
299.565
299.625
299.703
299.791
299.87
299.924
299.941
299.917
299.842
299.685
299.376
298.789
297.72
295.906
293.103
289.276
289.173
293.0
295.822
297.666
298.76
299.365
299.684
299.846
299.925
299.959
299.964
299.941
299.895
299.833
299.767
299.705
299.655
299.617
299.591
299.572
299.561
299.558
299.565
299.585
299.622
299.678
299.75
299.827
299.894
299.938
299.948
299.921
299.846
299.69
299.383
298.797
297.732
295.919
293.117
289.288
289.183
293.011
295.833
297.675
298.767
299.37
299.688
299.848
299.927
299.961
299.969
299.953
299.916
299.864
299.805
299.75
299.704
299.668
299.642
299.624
299.613
299.61
299.618
299.638
299.674
299.726
299.79
299.858
299.914
299.949
299.953
299.924
299.849
299.694
299.389
298.805
297.742
295.932
293.13
289.3
289.193
293.022
295.843
297.683
298.773
299.375
299.691
299.851
299.928
299.964
299.974
299.963
299.933
299.889
299.839
299.79
299.748
299.714
299.689
299.672
299.661
299.659
299.667
299.687
299.72
299.768
299.825
299.884
299.931
299.958
299.957
299.926
299.852
299.698
299.394
298.812
297.752
295.944
293.143
289.311
289.202
293.032
295.853
297.691
298.779
299.379
299.694
299.852
299.93
299.965
299.977
299.97
299.947
299.911
299.868
299.825
299.787
299.756
299.732
299.716
299.706
299.705
299.713
299.731
299.763
299.806
299.856
299.906
299.945
299.965
299.961
299.929
299.855
299.702
299.399
298.819
297.761
295.955
293.155
289.322
289.21
293.041
295.862
297.698
298.784
299.383
299.696
299.854
299.931
299.967
299.98
299.976
299.958
299.929
299.892
299.855
299.821
299.793
299.771
299.756
299.747
299.746
299.754
299.772
299.8
299.839
299.882
299.924
299.956
299.97
299.963
299.931
299.857
299.705
299.403
298.826
297.769
295.965
293.166
289.332
289.219
293.051
295.87
297.705
298.789
299.386
299.699
299.856
299.932
299.968
299.982
299.981
299.968
299.944
299.913
299.881
299.852
299.827
299.807
299.792
299.785
299.784
299.792
299.808
299.834
299.867
299.905
299.94
299.965
299.975
299.965
299.932
299.859
299.708
299.408
298.831
297.777
295.975
293.176
289.341
289.226
293.059
295.878
297.711
298.794
299.389
299.701
299.857
299.933
299.969
299.983
299.984
299.975
299.956
299.931
299.904
299.878
299.856
299.838
299.825
299.818
299.818
299.825
299.84
299.863
299.892
299.923
299.952
299.972
299.978
299.967
299.934
299.861
299.71
299.411
298.837
297.784
295.984
293.186
289.35
289.234
293.068
295.886
297.717
298.798
299.392
299.703
299.858
299.934
299.97
299.984
299.987
299.981
299.966
299.946
299.923
299.901
299.882
299.866
299.855
299.849
299.849
299.855
299.868
299.888
299.913
299.939
299.963
299.978
299.98
299.968
299.935
299.862
299.713
299.415
298.842
297.791
295.993
293.196
289.359
289.241
293.075
295.893
297.723
298.802
299.395
299.704
299.86
299.935
299.97
299.985
299.989
299.985
299.974
299.958
299.939
299.921
299.904
299.89
299.881
299.875
299.876
299.881
299.893
299.91
299.931
299.952
299.971
299.982
299.982
299.969
299.936
299.864
299.715
299.418
298.847
297.798
296.001
293.205
289.367
289.248
293.083
295.9
297.729
298.806
299.398
299.706
299.861
299.936
299.971
299.986
299.991
299.988
299.98
299.968
299.953
299.937
299.923
299.912
299.903
299.899
299.899
299.904
299.914
299.928
299.946
299.963
299.978
299.985
299.984
299.97
299.937
299.865
299.717
299.421
298.851
297.804
296.009
293.213
289.375
289.254
293.09
295.907
297.734
298.81
299.4
299.708
299.862
299.936
299.971
299.987
299.992
299.991
299.985
299.975
299.963
299.951
299.939
299.93
299.923
299.919
299.919
299.923
299.932
299.944
299.958
299.972
299.983
299.988
299.985
299.971
299.938
299.866
299.719
299.424
298.855
297.81
296.016
293.221
289.382
289.261
293.097
295.913
297.739
298.814
299.403
299.709
299.862
299.937
299.972
299.987
299.993
299.993
299.989
299.982
299.972
299.962
299.953
299.945
299.939
299.936
299.936
299.94
299.947
299.956
299.968
299.979
299.987
299.99
299.986
299.972
299.938
299.867
299.72
299.426
298.859
297.815
296.023
293.229
289.389
289.267
293.104
295.919
297.744
298.817
299.405
299.711
299.863
299.937
299.972
299.987
299.994
299.995
299.992
299.986
299.979
299.971
299.964
299.957
299.953
299.95
299.95
299.953
299.959
299.967
299.976
299.984
299.99
299.991
299.987
299.972
299.939
299.868
299.722
299.429
298.863
297.82
296.03
293.236
289.396
289.273
293.11
295.925
297.749
298.82
299.407
299.712
299.864
299.938
299.972
299.988
299.994
299.996
299.994
299.99
299.985
299.979
299.973
299.968
299.964
299.962
299.962
299.964
299.969
299.975
299.982
299.988
299.992
299.993
299.987
299.973
299.94
299.869
299.723
299.431
298.866
297.825
296.036
293.243
289.402
289.278
293.117
295.931
297.753
298.824
299.409
299.713
299.865
299.938
299.972
299.988
299.994
299.996
299.996
299.993
299.989
299.984
299.98
299.976
299.973
299.971
299.971
299.973
299.977
299.982
299.987
299.991
299.994
299.993
299.988
299.973
299.94
299.87
299.725
299.433
298.869
297.83
296.042
293.25
289.408
289.284
293.123
295.937
297.758
298.827
299.411
299.714
299.865
299.938
299.973
299.988
299.995
299.997
299.997
299.995
299.992
299.989
299.985
299.982
299.98
299.979
299.979
299.98
299.983
299.987
299.991
299.994
299.995
299.994
299.988
299.973
299.94
299.871
299.726
299.435
298.873
297.835
296.048
293.256
289.414
289.289
293.129
295.942
297.762
298.83
299.413
299.715
299.866
299.939
299.973
299.988
299.995
299.997
299.998
299.996
299.994
299.992
299.989
299.987
299.985
299.984
299.985
299.986
299.988
299.99
299.993
299.995
299.996
299.994
299.988
299.973
299.941
299.871
299.727
299.437
298.876
297.839
296.054
293.263
289.42
289.295
293.134
295.947
297.766
298.833
299.415
299.716
299.867
299.939
299.973
299.988
299.995
299.998
299.998
299.998
299.996
299.994
299.993
299.991
299.99
299.989
299.989
299.99
299.991
299.993
299.995
299.997
299.997
299.995
299.988
299.974
299.941
299.872
299.728
299.439
298.879
297.843
296.059
293.269
289.426
289.3
293.14
295.953
297.77
298.835
299.417
299.718
299.867
299.939
299.973
299.988
299.995
299.998
299.999
299.998
299.997
299.996
299.995
299.994
299.993
299.992
299.992
299.993
299.994
299.995
299.997
299.998
299.997
299.995
299.989
299.974
299.942
299.872
299.729
299.441
298.882
297.847
296.064
293.275
289.431
289.305
293.146
295.958
297.774
298.838
299.418
299.719
299.868
299.94
299.973
299.989
299.995
299.998
299.999
299.999
299.998
299.997
299.996
299.996
299.995
299.995
299.995
299.995
299.996
299.997
299.998
299.998
299.998
299.995
299.989
299.974
299.942
299.873
299.73
299.443
298.884
297.852
296.07
293.281
289.437
289.311
293.152
295.963
297.778
298.841
299.42
299.72
299.868
299.94
299.973
299.989
299.995
299.998
299.999
299.999
299.999
299.998
299.998
299.997
299.997
299.996
299.996
299.997
299.997
299.998
299.998
299.999
299.998
299.995
299.989
299.974
299.942
299.874
299.731
299.445
298.887
297.856
296.075
293.286
289.442
289.316
293.157
295.968
297.782
298.844
299.422
299.721
299.869
299.94
299.974
299.989
299.995
299.998
299.999
299.999
299.999
299.999
299.998
299.998
299.998
299.998
299.998
299.998
299.998
299.999
299.999
299.999
299.998
299.995
299.989
299.974
299.942
299.874
299.732
299.446
298.89
297.859
296.08
293.292
289.447
289.321
293.162
295.973
297.786
298.846
299.424
299.722
299.87
299.941
299.974
299.989
299.995
299.998
299.999
299.999
299.999
299.999
299.999
299.999
299.999
299.998
299.998
299.999
299.999
299.999
299.999
299.999
299.998
299.995
299.989
299.975
299.943
299.875
299.733
299.448
298.893
297.863
296.085
293.298
289.453
289.326
293.168
295.978
297.79
298.849
299.425
299.723
299.87
299.941
299.974
299.989
299.995
299.998
299.999
300.0
300.0
300.0
299.999
299.999
299.999
299.999
299.999
299.999
299.999
299.999
299.999
299.999
299.998
299.995
299.989
299.975
299.943
299.875
299.734
299.45
298.895
297.867
296.09
293.303
289.458
289.331
293.173
295.983
297.794
298.852
299.427
299.724
299.871
299.941
299.974
299.989
299.995
299.998
299.999
300.0
300.0
300.0
300.0
299.999
299.999
299.999
299.999
299.999
299.999
300.0
300.0
299.999
299.998
299.995
299.989
299.975
299.943
299.876
299.735
299.451
298.898
297.871
296.095
293.309
289.463
289.336
293.179
295.987
297.797
298.854
299.429
299.725
299.871
299.941
299.974
299.989
299.995
299.998
299.999
300.0
300.0
300.0
300.0
300.0
300.0
300.0
300.0
300.0
300.0
300.0
300.0
299.999
299.998
299.995
299.989
299.975
299.944
299.876
299.736
299.453
298.9
297.875
296.1
293.314
289.468
289.34
293.184
295.992
297.801
298.857
299.43
299.726
299.872
299.942
299.974
299.989
299.995
299.998
299.999
300.0
300.0
300.0
300.0
300.0
300.0
300.0
300.0
300.0
300.0
300.0
300.0
299.999
299.998
299.996
299.989
299.975
299.944
299.877
299.737
299.455
298.903
297.878
296.105
293.319
289.473
289.345
293.189
295.997
297.805
298.86
299.432
299.727
299.872
299.942
299.974
299.989
299.995
299.998
299.999
300.0
300.0
300.0
300.0
300.0
300.0
300.0
300.0
300.0
300.0
300.0
300.0
299.999
299.998
299.996
299.989
299.975
299.944
299.877
299.738
299.456
298.905
297.882
296.109
293.325
289.478
289.35
293.194
296.002
297.808
298.862
299.433
299.727
299.873
299.942
299.975
299.989
299.996
299.998
299.999
300.0
300.0
300.0
300.0
300.0
300.0
300.0
300.0
300.0
300.0
300.0
300.0
299.999
299.998
299.996
299.989
299.975
299.944
299.878
299.739
299.458
298.908
297.886
296.114
293.33
289.483
289.355
293.199
296.006
297.812
298.865
299.435
299.728
299.873
299.943
299.975
299.989
299.996
299.998
299.999
300.0
300.0
300.0
300.0
300.0
300.0
300.0
300.0
300.0
300.0
300.0
300.0
299.999
299.998
299.996
299.989
299.975
299.945
299.878
299.74
299.459
298.91
297.889
296.119
293.335
289.488
289.36
293.204
296.011
297.816
298.867
299.437
299.729
299.874
299.943
299.975
299.989
299.996
299.998
299.999
300.0
300.0
300.0
300.0
300.0
300.0
300.0
300.0
300.0
300.0
300.0
300.0
299.999
299.998
299.996
299.99
299.976
299.945
299.879
299.741
299.461
298.913
297.893
296.123
293.34
289.492
289.364
293.21
296.016
297.819
298.87
299.438
299.73
299.874
299.943
299.975
299.989
299.996
299.998
299.999
300.0
300.0
300.0
300.0
300.0
300.0
300.0
300.0
300.0
300.0
300.0
300.0
299.999
299.998
299.996
299.99
299.976
299.945
299.879
299.742
299.462
298.915
297.896
296.128
293.345
289.497
289.369
293.215
296.02
297.823
298.872
299.44
299.731
299.875
299.943
299.975
299.989
299.996
299.998
299.999
300.0
300.0
300.0
300.0
300.0
300.0
300.0
300.0
300.0
300.0
300.0
300.0
299.999
299.998
299.996
299.99
299.976
299.945
299.88
299.743
299.464
298.918
297.9
296.132
293.35
289.502
289.374
293.22
296.025
297.826
298.874
299.441
299.732
299.875
299.944
299.975
299.989
299.996
299.998
299.999
300.0
300.0
300.0
300.0
300.0
300.0
300.0
300.0
300.0
300.0
300.0
300.0
299.999
299.998
299.996
299.99
299.976
299.946
299.88
299.744
299.465
298.92
297.903
296.137
293.355
289.507
289.378
293.225
296.029
297.83
298.877
299.443
299.733
299.876
299.944
299.975
299.989
299.996
299.998
299.999
300.0
300.0
300.0
300.0
300.0
300.0
300.0
300.0
300.0
300.0
300.0
300.0
299.999
299.998
299.996
299.99
299.976
299.946
299.881
299.744
299.467
298.922
297.907
296.142
293.36
289.512
289.383
293.229
296.034
297.833
298.879
299.444
299.734
299.876
299.944
299.975
299.99
299.996
299.998
299.999
300.0
300.0
300.0
300.0
300.0
300.0
300.0
300.0
300.0
300.0
300.0
300.0
299.999
299.998
299.996
299.99
299.976
299.946
299.881
299.745
299.468
298.925
297.91
296.146
293.365
289.516
289.387
293.234
296.038
297.837
298.882
299.446
299.735
299.877
299.944
299.976
299.99
299.996
299.998
299.999
300.0
300.0
300.0
300.0
300.0
300.0
300.0
300.0
300.0
300.0
300.0
300.0
299.999
299.998
299.996
299.99
299.976
299.946
299.882
299.746
299.47
298.927
297.914
296.15
293.37
289.521
289.392
293.239
296.043
297.84
298.884
299.447
299.736
299.877
299.945
299.976
299.99
299.996
299.998
299.999
300.0
300.0
300.0
300.0
300.0
300.0
300.0
300.0
300.0
300.0
300.0
300.0
299.999
299.998
299.996
299.99
299.976
299.947
299.882
299.747
299.471
298.929
297.917
296.155
293.375
289.525
289.396
293.244
296.047
297.844
298.886
299.449
299.736
299.878
299.945
299.976
299.99
299.996
299.998
299.999
300.0
300.0
300.0
300.0
300.0
300.0
300.0
300.0
300.0
300.0
300.0
300.0
299.999
299.998
299.996
299.99
299.977
299.947
299.883
299.748
299.473
298.932
297.92
296.159
293.38
289.53
289.401
293.249
296.051
297.847
298.889
299.45
299.737
299.878
299.945
299.976
299.99
299.996
299.998
299.999
300.0
300.0
300.0
300.0
300.0
300.0
300.0
300.0
300.0
300.0
300.0
300.0
299.999
299.998
299.996
299.99
299.977
299.947
299.883
299.749
299.474
298.934
297.924
296.163
293.385
289.535
289.405
293.254
296.056
297.85
298.891
299.452
299.738
299.879
299.945
299.976
299.99
299.996
299.998
299.999
300.0
300.0
300.0
300.0
300.0
300.0
300.0
300.0
300.0
300.0
300.0
300.0
299.999
299.998
299.996
299.99
299.977
299.947
299.884
299.749
299.475
298.936
297.927
296.168
293.39
289.539
289.41
293.258
296.06
297.853
298.893
299.453
299.739
299.879
299.946
299.976
299.99
299.996
299.998
299.999
300.0
300.0
300.0
300.0
300.0
300.0
300.0
300.0
300.0
300.0
300.0
300.0
299.999
299.998
299.996
299.99
299.977
299.948
299.884
299.75
299.477
298.938
297.93
296.172
293.395
289.544
289.414
293.263
296.064
297.857
298.895
299.454
299.74
299.879
299.946
299.976
299.99
299.996
299.998
299.999
300.0
300.0
300.0
300.0
300.0
300.0
300.0
300.0
300.0
300.0
300.0
300.0
299.999
299.998
299.996
299.99
299.977
299.948
299.884
299.751
299.478
298.941
297.933
296.176
293.399
289.548
289.418
293.268
296.068
297.86
298.898
299.456
299.74
299.88
299.946
299.976
299.99
299.996
299.998
299.999
300.0
300.0
300.0
300.0
300.0
300.0
300.0
300.0
300.0
300.0
300.0
300.0
299.999
299.998
299.996
299.99
299.977
299.948
299.885
299.752
299.48
298.943
297.937
296.18
293.404
289.552
289.423
293.272
296.072
297.863
298.9
299.457
299.741
299.88
299.946
299.976
299.99
299.996
299.998
299.999
300.0
300.0
300.0
300.0
300.0
300.0
300.0
300.0
300.0
300.0
300.0
300.0
299.999
299.998
299.996
299.99
299.977
299.948
299.885
299.753
299.481
298.945
297.94
296.185
293.409
289.557
289.427